 Entering Gaussian System, Link 0=g16
 Input=hhtc_smd.gjf
 Output=hhtc_smd.log
 Initial command:
 /curc/sw/gaussian/16/g16/l1.exe "/rc_scratch/xuwa0145/Gau-7086.inp" -scrdir="/rc_scratch/xuwa0145/"
 Entering Link 1 = /curc/sw/gaussian/16/g16/l1.exe PID=      7087.
  
 Copyright (c) 1988,1990,1992,1993,1995,1998,2003,2009,2016,
            Gaussian, Inc.  All Rights Reserved.
  
 This is part of the Gaussian(R) 16 program.  It is based on
 the Gaussian(R) 09 system (copyright 2009, Gaussian, Inc.),
 the Gaussian(R) 03 system (copyright 2003, Gaussian, Inc.),
 the Gaussian(R) 98 system (copyright 1998, Gaussian, Inc.),
 the Gaussian(R) 94 system (copyright 1995, Gaussian, Inc.),
 the Gaussian 92(TM) system (copyright 1992, Gaussian, Inc.),
 the Gaussian 90(TM) system (copyright 1990, Gaussian, Inc.),
 the Gaussian 88(TM) system (copyright 1988, Gaussian, Inc.),
 the Gaussian 86(TM) system (copyright 1986, Carnegie Mellon
 University), and the Gaussian 82(TM) system (copyright 1983,
 Carnegie Mellon University). Gaussian is a federally registered
 trademark of Gaussian, Inc.
  
 This software contains proprietary and confidential information,
 including trade secrets, belonging to Gaussian, Inc.
  
 This software is provided under written license and may be
 used, copied, transmitted, or stored only in accord with that
 written license.
  
 The following legend is applicable only to US Government
 contracts under FAR:
  
                    RESTRICTED RIGHTS LEGEND
  
 Use, reproduction and disclosure by the US Government is
 subject to restrictions as set forth in subparagraphs (a)
 and (c) of the Commercial Computer Software - Restricted
 Rights clause in FAR 52.227-19.
  
 Gaussian, Inc.
 340 Quinnipiac St., Bldg. 40, Wallingford CT 06492
  
  
 ---------------------------------------------------------------
 Warning -- This program may not be used in any manner that
 competes with the business of Gaussian, Inc. or will provide
 assistance to any competitor of Gaussian, Inc.  The licensee
 of this program is prohibited from giving any competitor of
 Gaussian, Inc. access to this program.  By using this program,
 the user acknowledges that Gaussian, Inc. is engaged in the
 business of creating and licensing software in the field of
 computational chemistry and represents and warrants to the
 licensee that it is not a competitor of Gaussian, Inc. and that
 it will not use this program in any manner prohibited above.
 ---------------------------------------------------------------
  

 Cite this work as:
 Gaussian 16, Revision A.03,
 M. J. Frisch, G. W. Trucks, H. B. Schlegel, G. E. Scuseria, 
 M. A. Robb, J. R. Cheeseman, G. Scalmani, V. Barone, 
 G. A. Petersson, H. Nakatsuji, X. Li, M. Caricato, A. V. Marenich, 
 J. Bloino, B. G. Janesko, R. Gomperts, B. Mennucci, H. P. Hratchian, 
 J. V. Ortiz, A. F. Izmaylov, J. L. Sonnenberg, D. Williams-Young, 
 F. Ding, F. Lipparini, F. Egidi, J. Goings, B. Peng, A. Petrone, 
 T. Henderson, D. Ranasinghe, V. G. Zakrzewski, J. Gao, N. Rega, 
 G. Zheng, W. Liang, M. Hada, M. Ehara, K. Toyota, R. Fukuda, 
 J. Hasegawa, M. Ishida, T. Nakajima, Y. Honda, O. Kitao, H. Nakai, 
 T. Vreven, K. Throssell, J. A. Montgomery, Jr., J. E. Peralta, 
 F. Ogliaro, M. J. Bearpark, J. J. Heyd, E. N. Brothers, K. N. Kudin, 
 V. N. Staroverov, T. A. Keith, R. Kobayashi, J. Normand, 
 K. Raghavachari, A. P. Rendell, J. C. Burant, S. S. Iyengar, 
 J. Tomasi, M. Cossi, J. M. Millam, M. Klene, C. Adamo, R. Cammi, 
 J. W. Ochterski, R. L. Martin, K. Morokuma, O. Farkas, 
 J. B. Foresman, and D. J. Fox, Gaussian, Inc., Wallingford CT, 2016.
 
 ******************************************
 Gaussian 16:  ES64L-G16RevA.03 25-Dec-2016
                14-Jan-2022 
 ******************************************
 %chk=hhtc_smd.chk
 %mem=10gb
 %nprocshared=28
 Will use up to   28 processors via shared memory.
 --------------------------------------------------------------
 #opt freq wb97xd def2svp scf=xqc scrf=(smd,solvent=2-propanol)
 --------------------------------------------------------------
 1/18=20,19=15,26=3,38=1/1,3;
 2/9=110,12=2,17=6,18=5,40=1/2;
 3/5=43,7=101,11=2,25=1,30=1,70=32201,71=1,72=73,74=-58/1,2,3;
 4//1;
 5/5=2,8=3,13=1,38=5,53=73/2,8;
 6/7=2,8=2,9=2,10=2,28=1/1;
 7//1,2,3,16;
 1/18=20,19=15,26=3/3(2);
 2/9=110/2;
 99//99;
 2/9=110/2;
 3/5=43,7=101,11=2,25=1,30=1,70=32205,71=1,72=73,74=-58/1,2,3;
 4/5=5,16=3,69=1/1;
 5/5=2,8=3,13=1,38=5,53=73/2,8;
 7//1,2,3,16;
 1/18=20,19=15,26=3/3(-5);
 2/9=110/2;
 6/7=2,8=2,9=2,10=2,19=2,28=1/1;
 99/9=1/99;
 ----------
 [No Title]
 ----------
 Symbolic Z-matrix:
 Charge =  0 Multiplicity = 1
 C                     0.44409   4.19696   0.00009 
 C                     0.05655   2.84736   0.00012 
 C                    -1.31905   2.51799   0.00005 
 C                    -2.26764   3.55529  -0.00006 
 C                    -1.86897   4.88168  -0.0001 
 C                    -0.50045   5.21326  -0.00002 
 C                     1.04897   1.81752   0.00024 
 C                     1.87906   0.93218   0.00032 
 C                     2.84631  -0.12022   0.00014 
 C                     4.21813   0.18521   0.00005 
 C                     5.16851  -0.82228  -0.00008 
 C                     4.773    -2.17396  -0.00013 
 C                     3.42092  -2.48606  -0.00004 
 C                     2.44535  -1.47639   0.00009 
 C                     1.05729  -1.82176   0.0002 
 C                    -0.12362  -2.10022   0.00026 
 C                    -1.51901  -2.41431   0.00012 
 C                    -1.93609  -3.75488   0.00009 
 C                    -3.28374  -4.08531  -0.00002 
 C                    -4.2453   -3.05647  -0.00009 
 C                    -3.84992  -1.72901  -0.00007 
 C                    -2.48744  -1.38348   0.00005 
 C                    -1.74775   1.15434   0.00008 
 C                    -2.09609  -0.00859   0.00008 
 O                    -2.71588   5.94546  -0.00021 
 O                    -0.11967   6.50335  -0.00006 
 O                     6.51258  -0.61879  -0.00019 
 O                     5.70089  -3.14733  -0.00026 
 O                    -3.67332  -5.37248  -0.00004 
 O                    -5.53755  -3.47941  -0.00023 
 H                     1.50091   4.46499   0.00015 
 H                    -3.33128   3.30475  -0.00012 
 H                     4.53096   1.2322    0.00008 
 H                     3.12553  -3.53558  -0.00007 
 H                    -1.19976  -4.55896   0.00016 
 H                    -4.60121  -0.93547  -0.00014 
 H                    -3.63106   5.65218  -0.00034 
 H                    -0.91629   7.0491   -0.00015 
 H                     6.7148    0.32082   0.00018 
 H                     6.57151  -2.72972  -0.00024 
 H                    -4.6386   -5.39286  -0.00003 
 H                    -6.14055  -2.73111   0.00023 
 

 GradGradGradGradGradGradGradGradGradGradGradGradGradGradGradGradGradGrad
 Berny optimization.
 Initialization pass.
                           ----------------------------
                           !    Initial Parameters    !
                           ! (Angstroms and Degrees)  !
 --------------------------                            --------------------------
 ! Name  Definition              Value          Derivative Info.                !
 --------------------------------------------------------------------------------
 ! R1    R(1,2)                  1.4041         estimate D2E/DX2                !
 ! R2    R(1,6)                  1.3874         estimate D2E/DX2                !
 ! R3    R(1,31)                 1.0903         estimate D2E/DX2                !
 ! R4    R(2,3)                  1.4145         estimate D2E/DX2                !
 ! R5    R(2,7)                  1.4302         estimate D2E/DX2                !
 ! R6    R(3,4)                  1.4056         estimate D2E/DX2                !
 ! R7    R(3,23)                 1.4294         estimate D2E/DX2                !
 ! R8    R(4,5)                  1.385          estimate D2E/DX2                !
 ! R9    R(4,32)                 1.0927         estimate D2E/DX2                !
 ! R10   R(5,6)                  1.4081         estimate D2E/DX2                !
 ! R11   R(5,25)                 1.3597         estimate D2E/DX2                !
 ! R12   R(6,26)                 1.3451         estimate D2E/DX2                !
 ! R13   R(7,8)                  1.2136         estimate D2E/DX2                !
 ! R14   R(8,9)                  1.4294         estimate D2E/DX2                !
 ! R15   R(9,10)                 1.4054         estimate D2E/DX2                !
 ! R16   R(9,14)                 1.4142         estimate D2E/DX2                !
 ! R17   R(10,11)                1.385          estimate D2E/DX2                !
 ! R18   R(10,33)                1.0927         estimate D2E/DX2                !
 ! R19   R(11,12)                1.4084         estimate D2E/DX2                !
 ! R20   R(11,27)                1.3594         estimate D2E/DX2                !
 ! R21   R(12,13)                1.3876         estimate D2E/DX2                !
 ! R22   R(12,28)                1.3448         estimate D2E/DX2                !
 ! R23   R(13,14)                1.404          estimate D2E/DX2                !
 ! R24   R(13,34)                1.0903         estimate D2E/DX2                !
 ! R25   R(14,15)                1.4304         estimate D2E/DX2                !
 ! R26   R(15,16)                1.2133         estimate D2E/DX2                !
 ! R27   R(16,17)                1.4303         estimate D2E/DX2                !
 ! R28   R(17,18)                1.404          estimate D2E/DX2                !
 ! R29   R(17,22)                1.4144         estimate D2E/DX2                !
 ! R30   R(18,19)                1.3876         estimate D2E/DX2                !
 ! R31   R(18,35)                1.0903         estimate D2E/DX2                !
 ! R32   R(19,20)                1.4082         estimate D2E/DX2                !
 ! R33   R(19,29)                1.3448         estimate D2E/DX2                !
 ! R34   R(20,21)                1.3851         estimate D2E/DX2                !
 ! R35   R(20,30)                1.3597         estimate D2E/DX2                !
 ! R36   R(21,22)                1.4056         estimate D2E/DX2                !
 ! R37   R(21,36)                1.0928         estimate D2E/DX2                !
 ! R38   R(22,24)                1.4295         estimate D2E/DX2                !
 ! R39   R(23,24)                1.214          estimate D2E/DX2                !
 ! R40   R(25,37)                0.961          estimate D2E/DX2                !
 ! R41   R(26,38)                0.9656         estimate D2E/DX2                !
 ! R42   R(27,39)                0.9611         estimate D2E/DX2                !
 ! R43   R(28,40)                0.9656         estimate D2E/DX2                !
 ! R44   R(29,41)                0.9655         estimate D2E/DX2                !
 ! R45   R(30,42)                0.961          estimate D2E/DX2                !
 ! A1    A(2,1,6)              121.0741         estimate D2E/DX2                !
 ! A2    A(2,1,31)             120.2527         estimate D2E/DX2                !
 ! A3    A(6,1,31)             118.6732         estimate D2E/DX2                !
 ! A4    A(1,2,3)              119.4871         estimate D2E/DX2                !
 ! A5    A(1,2,7)              120.0384         estimate D2E/DX2                !
 ! A6    A(3,2,7)              120.4744         estimate D2E/DX2                !
 ! A7    A(2,3,4)              118.9766         estimate D2E/DX2                !
 ! A8    A(2,3,23)             120.9175         estimate D2E/DX2                !
 ! A9    A(4,3,23)             120.1059         estimate D2E/DX2                !
 ! A10   A(3,4,5)              120.8291         estimate D2E/DX2                !
 ! A11   A(3,4,32)             119.1877         estimate D2E/DX2                !
 ! A12   A(5,4,32)             119.9832         estimate D2E/DX2                !
 ! A13   A(4,5,6)              120.3484         estimate D2E/DX2                !
 ! A14   A(4,5,25)             124.7469         estimate D2E/DX2                !
 ! A15   A(6,5,25)             114.9047         estimate D2E/DX2                !
 ! A16   A(1,6,5)              119.2847         estimate D2E/DX2                !
 ! A17   A(1,6,26)             120.6517         estimate D2E/DX2                !
 ! A18   A(5,6,26)             120.0636         estimate D2E/DX2                !
 ! A19   A(8,9,10)             120.0338         estimate D2E/DX2                !
 ! A20   A(8,9,14)             120.9438         estimate D2E/DX2                !
 ! A21   A(10,9,14)            119.0224         estimate D2E/DX2                !
 ! A22   A(9,10,11)            120.7773         estimate D2E/DX2                !
 ! A23   A(9,10,33)            119.1874         estimate D2E/DX2                !
 ! A24   A(11,10,33)           120.0352         estimate D2E/DX2                !
 ! A25   A(10,11,12)           120.361          estimate D2E/DX2                !
 ! A26   A(10,11,27)           124.72           estimate D2E/DX2                !
 ! A27   A(12,11,27)           114.919          estimate D2E/DX2                !
 ! A28   A(11,12,13)           119.3079         estimate D2E/DX2                !
 ! A29   A(11,12,28)           120.0603         estimate D2E/DX2                !
 ! A30   A(13,12,28)           120.6317         estimate D2E/DX2                !
 ! A31   A(12,13,14)           121.018          estimate D2E/DX2                !
 ! A32   A(12,13,34)           118.7176         estimate D2E/DX2                !
 ! A33   A(14,13,34)           120.2644         estimate D2E/DX2                !
 ! A34   A(9,14,13)            119.5134         estimate D2E/DX2                !
 ! A35   A(9,14,15)            120.4426         estimate D2E/DX2                !
 ! A36   A(13,14,15)           120.0441         estimate D2E/DX2                !
 ! A37   A(16,17,18)           119.9673         estimate D2E/DX2                !
 ! A38   A(16,17,22)           120.5271         estimate D2E/DX2                !
 ! A39   A(18,17,22)           119.5056         estimate D2E/DX2                !
 ! A40   A(17,18,19)           121.0589         estimate D2E/DX2                !
 ! A41   A(17,18,35)           120.236          estimate D2E/DX2                !
 ! A42   A(19,18,35)           118.7052         estimate D2E/DX2                !
 ! A43   A(18,19,20)           119.2872         estimate D2E/DX2                !
 ! A44   A(18,19,29)           120.616          estimate D2E/DX2                !
 ! A45   A(20,19,29)           120.0968         estimate D2E/DX2                !
 ! A46   A(19,20,21)           120.3498         estimate D2E/DX2                !
 ! A47   A(19,20,30)           114.9413         estimate D2E/DX2                !
 ! A48   A(21,20,30)           124.7089         estimate D2E/DX2                !
 ! A49   A(20,21,22)           120.8167         estimate D2E/DX2                !
 ! A50   A(20,21,36)           119.9802         estimate D2E/DX2                !
 ! A51   A(22,21,36)           119.2032         estimate D2E/DX2                !
 ! A52   A(17,22,21)           118.9819         estimate D2E/DX2                !
 ! A53   A(17,22,24)           120.8991         estimate D2E/DX2                !
 ! A54   A(21,22,24)           120.1191         estimate D2E/DX2                !
 ! A55   A(5,25,37)            110.7554         estimate D2E/DX2                !
 ! A56   A(6,26,38)            107.9701         estimate D2E/DX2                !
 ! A57   A(11,27,39)           110.7548         estimate D2E/DX2                !
 ! A58   A(12,28,40)           108.0041         estimate D2E/DX2                !
 ! A59   A(19,29,41)           108.0489         estimate D2E/DX2                !
 ! A60   A(20,30,42)           110.7404         estimate D2E/DX2                !
 ! A61   L(2,7,8,17,-1)        179.2151         estimate D2E/DX2                !
 ! A62   L(7,8,9,16,-1)        179.4307         estimate D2E/DX2                !
 ! A63   L(14,15,16,1,-1)      179.2962         estimate D2E/DX2                !
 ! A64   L(15,16,17,1,-1)      179.417          estimate D2E/DX2                !
 ! A65   L(3,23,24,8,-1)       179.2228         estimate D2E/DX2                !
 ! A66   L(22,24,23,9,-1)      179.2138         estimate D2E/DX2                !
 ! A67   L(2,7,8,17,-2)        179.9985         estimate D2E/DX2                !
 ! A68   L(7,8,9,16,-2)        179.9893         estimate D2E/DX2                !
 ! A69   L(14,15,16,1,-2)      179.9986         estimate D2E/DX2                !
 ! A70   L(15,16,17,1,-2)      179.9911         estimate D2E/DX2                !
 ! A71   L(3,23,24,8,-2)       180.0011         estimate D2E/DX2                !
 ! A72   L(22,24,23,9,-2)      179.9987         estimate D2E/DX2                !
 ! D1    D(6,1,2,3)             -0.0002         estimate D2E/DX2                !
 ! D2    D(6,1,2,7)           -179.9996         estimate D2E/DX2                !
 ! D3    D(31,1,2,3)           179.9999         estimate D2E/DX2                !
 ! D4    D(31,1,2,7)             0.0005         estimate D2E/DX2                !
 ! D5    D(2,1,6,5)              0.0            estimate D2E/DX2                !
 ! D6    D(2,1,6,26)          -179.9999         estimate D2E/DX2                !
 ! D7    D(31,1,6,5)           179.9999         estimate D2E/DX2                !
 ! D8    D(31,1,6,26)            0.0            estimate D2E/DX2                !
 ! D9    D(1,2,3,4)              0.0002         estimate D2E/DX2                !
 ! D10   D(1,2,3,23)           179.9999         estimate D2E/DX2                !
 ! D11   D(7,2,3,4)            179.9996         estimate D2E/DX2                !
 ! D12   D(7,2,3,23)            -0.0007         estimate D2E/DX2                !
 ! D13   D(1,2,9,10)            -0.0031         estimate D2E/DX2                !
 ! D14   D(1,2,9,14)          -179.9959         estimate D2E/DX2                !
 ! D15   D(3,2,9,10)           179.9921         estimate D2E/DX2                !
 ! D16   D(3,2,9,14)            -0.0007         estimate D2E/DX2                !
 ! D17   D(2,3,4,5)              0.0            estimate D2E/DX2                !
 ! D18   D(2,3,4,32)           179.9999         estimate D2E/DX2                !
 ! D19   D(23,3,4,5)          -179.9997         estimate D2E/DX2                !
 ! D20   D(23,3,4,32)            0.0002         estimate D2E/DX2                !
 ! D21   D(2,3,22,17)           -0.0003         estimate D2E/DX2                !
 ! D22   D(2,3,22,21)         -179.9978         estimate D2E/DX2                !
 ! D23   D(4,3,22,17)          179.998          estimate D2E/DX2                !
 ! D24   D(4,3,22,21)            0.0005         estimate D2E/DX2                !
 ! D25   D(3,4,5,6)             -0.0002         estimate D2E/DX2                !
 ! D26   D(3,4,5,25)          -180.0            estimate D2E/DX2                !
 ! D27   D(32,4,5,6)           179.9999         estimate D2E/DX2                !
 ! D28   D(32,4,5,25)            0.0001         estimate D2E/DX2                !
 ! D29   D(4,5,6,1)              0.0002         estimate D2E/DX2                !
 ! D30   D(4,5,6,26)          -179.9999         estimate D2E/DX2                !
 ! D31   D(25,5,6,1)           180.0            estimate D2E/DX2                !
 ! D32   D(25,5,6,26)           -0.0001         estimate D2E/DX2                !
 ! D33   D(4,5,25,37)           -0.0057         estimate D2E/DX2                !
 ! D34   D(6,5,25,37)          179.9945         estimate D2E/DX2                !
 ! D35   D(1,6,26,38)          179.9991         estimate D2E/DX2                !
 ! D36   D(5,6,26,38)           -0.0008         estimate D2E/DX2                !
 ! D37   D(8,9,10,11)          179.9982         estimate D2E/DX2                !
 ! D38   D(8,9,10,33)           -0.0017         estimate D2E/DX2                !
 ! D39   D(14,9,10,11)          -0.0005         estimate D2E/DX2                !
 ! D40   D(14,9,10,33)         179.9996         estimate D2E/DX2                !
 ! D41   D(8,9,14,13)         -179.9982         estimate D2E/DX2                !
 ! D42   D(8,9,14,15)            0.0006         estimate D2E/DX2                !
 ! D43   D(10,9,14,13)           0.0005         estimate D2E/DX2                !
 ! D44   D(10,9,14,15)         179.9993         estimate D2E/DX2                !
 ! D45   D(9,10,11,12)           0.0003         estimate D2E/DX2                !
 ! D46   D(9,10,11,27)         179.9994         estimate D2E/DX2                !
 ! D47   D(33,10,11,12)       -179.9998         estimate D2E/DX2                !
 ! D48   D(33,10,11,27)         -0.0006         estimate D2E/DX2                !
 ! D49   D(10,11,12,13)         -0.0001         estimate D2E/DX2                !
 ! D50   D(10,11,12,28)       -179.9999         estimate D2E/DX2                !
 ! D51   D(27,11,12,13)       -179.9993         estimate D2E/DX2                !
 ! D52   D(27,11,12,28)          0.0009         estimate D2E/DX2                !
 ! D53   D(10,11,27,39)          0.0218         estimate D2E/DX2                !
 ! D54   D(12,11,27,39)       -179.979          estimate D2E/DX2                !
 ! D55   D(11,12,13,14)          0.0002         estimate D2E/DX2                !
 ! D56   D(11,12,13,34)       -179.9994         estimate D2E/DX2                !
 ! D57   D(28,12,13,14)        180.0            estimate D2E/DX2                !
 ! D58   D(28,12,13,34)          0.0004         estimate D2E/DX2                !
 ! D59   D(11,12,28,40)          0.0037         estimate D2E/DX2                !
 ! D60   D(13,12,28,40)       -179.9961         estimate D2E/DX2                !
 ! D61   D(12,13,14,9)          -0.0004         estimate D2E/DX2                !
 ! D62   D(12,13,14,15)       -179.9992         estimate D2E/DX2                !
 ! D63   D(34,13,14,9)         179.9992         estimate D2E/DX2                !
 ! D64   D(34,13,14,15)          0.0005         estimate D2E/DX2                !
 ! D65   D(9,14,17,18)        -179.9994         estimate D2E/DX2                !
 ! D66   D(9,14,17,22)           0.0062         estimate D2E/DX2                !
 ! D67   D(13,14,17,18)          0.0039         estimate D2E/DX2                !
 ! D68   D(13,14,17,22)       -179.9904         estimate D2E/DX2                !
 ! D69   D(16,17,18,19)        179.9985         estimate D2E/DX2                !
 ! D70   D(16,17,18,35)         -0.0003         estimate D2E/DX2                !
 ! D71   D(22,17,18,19)         -0.0002         estimate D2E/DX2                !
 ! D72   D(22,17,18,35)       -179.999          estimate D2E/DX2                !
 ! D73   D(16,17,22,21)       -179.9993         estimate D2E/DX2                !
 ! D74   D(16,17,22,24)          0.0017         estimate D2E/DX2                !
 ! D75   D(18,17,22,21)         -0.0006         estimate D2E/DX2                !
 ! D76   D(18,17,22,24)       -179.9996         estimate D2E/DX2                !
 ! D77   D(17,18,19,20)          0.0005         estimate D2E/DX2                !
 ! D78   D(17,18,19,29)       -179.9994         estimate D2E/DX2                !
 ! D79   D(35,18,19,20)        179.9994         estimate D2E/DX2                !
 ! D80   D(35,18,19,29)         -0.0005         estimate D2E/DX2                !
 ! D81   D(18,19,20,21)         -0.0001         estimate D2E/DX2                !
 ! D82   D(18,19,20,30)        179.9983         estimate D2E/DX2                !
 ! D83   D(29,19,20,21)        179.9998         estimate D2E/DX2                !
 ! D84   D(29,19,20,30)         -0.0018         estimate D2E/DX2                !
 ! D85   D(18,19,29,41)        179.9949         estimate D2E/DX2                !
 ! D86   D(20,19,29,41)         -0.0049         estimate D2E/DX2                !
 ! D87   D(19,20,21,22)         -0.0006         estimate D2E/DX2                !
 ! D88   D(19,20,21,36)        179.9989         estimate D2E/DX2                !
 ! D89   D(30,20,21,22)       -179.9989         estimate D2E/DX2                !
 ! D90   D(30,20,21,36)          0.0006         estimate D2E/DX2                !
 ! D91   D(19,20,30,42)        179.968          estimate D2E/DX2                !
 ! D92   D(21,20,30,42)         -0.0337         estimate D2E/DX2                !
 ! D93   D(20,21,22,17)          0.001          estimate D2E/DX2                !
 ! D94   D(20,21,22,24)        180.0            estimate D2E/DX2                !
 ! D95   D(36,21,22,17)       -179.9985         estimate D2E/DX2                !
 ! D96   D(36,21,22,24)          0.0005         estimate D2E/DX2                !
 --------------------------------------------------------------------------------
 Trust Radius=3.00D-01 FncErr=1.00D-07 GrdErr=1.00D-06 EigMax=2.50D+02 EigMin=1.00D-04
 Number of steps in this run=    223 maximum allowed number of steps=    252.
 GradGradGradGradGradGradGradGradGradGradGradGradGradGradGradGradGradGrad

                          Input orientation:                          
 ---------------------------------------------------------------------
 Center     Atomic      Atomic             Coordinates (Angstroms)
 Number     Number       Type             X           Y           Z
 ---------------------------------------------------------------------
      1          6           0        0.444094    4.196962    0.000087
      2          6           0        0.056551    2.847363    0.000122
      3          6           0       -1.319052    2.517986    0.000048
      4          6           0       -2.267637    3.555288   -0.000063
      5          6           0       -1.868972    4.881682   -0.000100
      6          6           0       -0.500448    5.213258   -0.000023
      7          6           0        1.048975    1.817519    0.000244
      8          6           0        1.879055    0.932182    0.000316
      9          6           0        2.846306   -0.120223    0.000142
     10          6           0        4.218132    0.185206    0.000048
     11          6           0        5.168506   -0.822278   -0.000084
     12          6           0        4.772996   -2.173957   -0.000132
     13          6           0        3.420922   -2.486061   -0.000043
     14          6           0        2.445349   -1.476394    0.000090
     15          6           0        1.057285   -1.821758    0.000198
     16          6           0       -0.123617   -2.100221    0.000261
     17          6           0       -1.519013   -2.414309    0.000124
     18          6           0       -1.936094   -3.754880    0.000086
     19          6           0       -3.283736   -4.085314   -0.000016
     20          6           0       -4.245302   -3.056467   -0.000093
     21          6           0       -3.849919   -1.729012   -0.000065
     22          6           0       -2.487443   -1.383481    0.000054
     23          6           0       -1.747753    1.154339    0.000078
     24          6           0       -2.096090   -0.008587    0.000081
     25          8           0       -2.715877    5.945463   -0.000205
     26          8           0       -0.119674    6.503355   -0.000058
     27          8           0        6.512583   -0.618785   -0.000193
     28          8           0        5.700890   -3.147326   -0.000259
     29          8           0       -3.673316   -5.372478   -0.000039
     30          8           0       -5.537550   -3.479405   -0.000226
     31          1           0        1.500913    4.464988    0.000145
     32          1           0       -3.331277    3.304748   -0.000122
     33          1           0        4.530962    1.232198    0.000081
     34          1           0        3.125531   -3.535579   -0.000072
     35          1           0       -1.199759   -4.558956    0.000155
     36          1           0       -4.601214   -0.935474   -0.000144
     37          1           0       -3.631056    5.652180   -0.000340
     38          1           0       -0.916287    7.049096   -0.000150
     39          1           0        6.714800    0.320824    0.000176
     40          1           0        6.571507   -2.729715   -0.000242
     41          1           0       -4.638595   -5.392860   -0.000032
     42          1           0       -6.140550   -2.731113    0.000230
 ---------------------------------------------------------------------
                    Distance matrix (angstroms):
                    1          2          3          4          5
     1  C    0.000000
     2  C    1.404139   0.000000
     3  C    2.434675   1.414487   0.000000
     4  C    2.786616   2.429611   1.405635   0.000000
     5  C    2.412284   2.801088   2.426823   1.385011   0.000000
     6  C    1.387450   2.430578   2.816843   2.423184   1.408120
     7  C    2.455123   1.430204   2.469455   3.744297   4.231254
     8  C    3.566217   2.643755   3.569687   4.906704   5.444838
     9  C    4.940517   4.072996   4.930553   6.297761   6.874075
    10  C    5.507953   4.940226   6.008516   7.309080   7.688285
    11  C    6.892956   6.292722   7.296970   8.628981   9.058767
    12  C    7.702467   6.889014   7.689433   9.077156   9.690087
    13  C    7.316030   6.305902   6.892593   8.298048   9.070095
    14  C    6.015978   4.939760   5.488696   6.894205   7.683651
    15  C    6.049876   4.775161   4.947763   6.322004   7.314307
    16  C    6.322722   4.950863   4.770419   6.048273   7.196752
    17  C    6.896571   5.492503   4.936347   6.016355   7.304379
    18  C    8.300427   6.896394   6.303141   7.317682   8.636823
    19  C    9.082555   7.695423   6.889380   7.707870   9.077917
    20  C    8.637284   7.304872   6.295829   6.901193   8.286203
    21  C    7.318177   6.016952   4.943913   5.516108   6.901118
    22  C    6.303591   4.936795   4.072663   4.943658   6.295615
    23  C    3.749900   2.474236   1.429447   2.456590   3.729314
    24  C    4.913164   3.576355   2.643361   3.568001   4.895540
    25  O    3.611464   4.157473   3.701178   2.431842   1.359735
    26  O    2.374296   3.660237   4.161931   3.647581   2.385344
    27  O    7.747127   7.327655   8.436459   9.721890  10.025248
    28  O    9.031748   8.233763   9.020828  10.412610  11.034844
    29  O   10.417641   9.026500   8.234196   9.037751  10.411698
    30  O    9.731735   8.445233   7.332423   7.757528   9.130512
    31  H    1.090277   2.168615   3.426809   3.876793   3.395550
    32  H    3.879365   3.418564   2.160566   1.092749   2.150595
    33  H    5.048992   4.757007   5.989651   7.184546   7.367353
    34  H    8.184271   7.082414   7.509991   8.908797   9.787510
    35  H    8.908892   7.512115   7.077947   8.184212   9.464327
    36  H    7.197016   6.000386   4.764344   5.060882   6.426854
    37  H    4.327182   4.633081   3.894680   2.501173   1.923176
    38  H    3.159953   4.312885   4.548975   3.746043   2.367550
    39  H    7.371987   7.121494   8.328883   9.547038   9.720214
    40  H    9.247921   8.576039   9.476249  10.845816  11.365520
    41  H   10.853498   9.483969   8.579094   9.256932  10.641289
    42  H    9.558021   8.338073   7.127404   7.383650   8.729320
                    6          7          8          9         10
     6  C    0.000000
     7  C    3.732527   0.000000
     8  C    4.897923   1.213612   0.000000
     9  C    6.296569   2.642961   1.429381   0.000000
    10  C    6.895383   3.564828   2.455454   1.405416   0.000000
    11  C    8.280382   4.892756   3.728085   2.426004   1.385004
    12  C    9.076352   5.458957   4.245350   2.816018   2.423535
    13  C    8.640408   4.913953   3.749899   2.434620   2.787689
    14  C    7.309526   3.577670   2.474253   1.414202   2.429748
    15  C    7.205413   3.639286   2.873933   2.468971   3.744177
    16  C    7.323181   4.089457   3.634028   3.569431   4.906522
    17  C    7.695275   4.950043   4.769263   4.931414   6.298596
    18  C    9.082322   6.321572   6.043502   6.006836   7.307447
    19  C    9.706190   7.322283   7.199283   7.300641   8.632228
    20  C    9.078121   7.196187   7.308698   7.675443   9.063010
    21  C    7.708052   6.047896   6.316890   6.886772   8.292025
    22  C    6.889493   4.769974   4.942530   5.481305   6.886619
    23  C    4.246245   2.874282   3.633606   4.767587   6.044088
    24  C    5.460196   3.636770   4.084951   4.943657   6.317195
    25  O    2.333292   5.586952   6.800470   8.229850   9.014491
    26  O    1.345117   4.829368   5.918859   7.257329   7.663913
    27  O    9.121147   5.982189   4.886213   3.700020   2.431236
    28  O   10.409417   6.803675   5.590063   4.160769   3.647512
    29  O   11.051013   8.602098   8.401045   8.372076   9.652088
    30  O   10.046631   8.452202   8.629492   9.031785  10.421262
    31  H    2.136669   2.685766   3.552986   4.778519   5.069498
    32  H    3.414089   4.625847   5.725088   7.063495   8.168544
    33  H    6.415912   3.530840   2.668824   2.160349   1.092728
    34  H    9.470474   5.741754   4.638382   3.426751   3.877888
    35  H    9.797204   6.761378   6.295371   6.006080   7.201432
    36  H    7.390750   6.285189   6.744036   7.492008   8.890264
    37  H    3.161227   6.050398   7.255323   8.676224   9.565436
    38  H    1.882345   5.588529   6.725368   8.096681   8.571770
    39  H    8.717552   5.860177   4.874237   3.893555   2.500349
    40  H   10.635007   7.153719   5.952193   4.548249   3.746350
    41  H   11.384814   9.183573   9.082176   9.155569  10.466921
    42  H    9.742884   8.507604   8.816677   9.358436  10.761376
                   11         12         13         14         15
    11  C    0.000000
    12  C    1.408355   0.000000
    13  C    2.412928   1.387629   0.000000
    14  C    2.800616   2.429925   1.403984   0.000000
    15  C    4.230969   3.732366   2.455215   1.430384   0.000000
    16  C    5.444236   4.897168   3.565477   2.643624   1.213289
    17  C    6.874407   6.296598   4.940456   4.073801   2.643564
    18  C    7.686059   6.892837   5.505227   4.938476   3.563324
    19  C    9.060232   8.280351   6.892753   6.295147   4.895728
    20  C    9.675297   9.061375   7.687415   6.874696   5.444441
    21  C    9.063893   8.634387   7.310147   6.300335   4.908080
    22  C    7.676490   7.303344   6.010363   4.933667   3.571720
    23  C    7.193167   7.321046   6.322002   4.950036   4.089669
    24  C    7.310024   7.202303   6.047752   4.772748   3.637494
    25  O   10.390660  11.045732  10.428370   9.040034   8.635188
    26  O    9.034918   9.961625   9.661543   8.381870   8.407897
    27  O    1.359394   2.333393   3.611798   4.156668   5.586360
    28  O    2.385221   1.344780   2.373926   3.659312   4.829099
    29  O    9.943950   9.031651   7.658957   7.253794   5.914913
    30  O   11.030864  10.392861   9.013376   8.230354   6.799974
    31  H    6.434782   7.401494   7.211346   6.015977   6.302379
    32  H    9.448738   9.782405   8.895261   7.498582   6.748373
    33  H    2.151124   3.414743   3.880417   3.418516   4.625265
    34  H    3.396432   2.137324   1.090295   2.168615   2.686042
    35  H    7.383601   6.431331   5.064345   4.773783   3.547746
    36  H    9.770376   9.455668   8.170617   7.067294   5.727487
    37  H   10.924784  11.483750  10.768536   9.366924   8.822714
    38  H    9.949032  10.836635  10.475238   9.164310   9.087741
    39  H    1.922942   3.161413   4.327613   4.632300   6.049639
    40  H    2.367853   1.882421   3.159993   4.312307   5.588473
    41  H   10.819864   9.946828   8.567689   8.094502   6.722784
    42  H   11.469019  10.927759   9.564612   8.677095   7.255050
                   16         17         18         19         20
    16  C    0.000000
    17  C    1.430308   0.000000
    18  C    2.454174   1.403954   0.000000
    19  C    3.731882   2.430330   1.387561   0.000000
    20  C    4.231157   2.800896   2.412514   1.408238   0.000000
    21  C    3.744746   2.429559   2.786910   2.423370   1.385086
    22  C    2.470099   1.414377   2.434650   2.816733   2.426716
    23  C    3.637304   3.575971   4.912831   5.460147   4.895778
    24  C    2.874993   2.473968   3.749708   4.246199   3.729435
    25  O    8.452978   8.445015   9.731635  10.046838   9.130930
    26  O    8.603577   9.026787  10.417810  11.051299  10.412060
    27  O    6.799544   8.229851   9.011950  10.391568  11.030611
    28  O    5.917881   7.257018   7.661113   9.033456   9.946607
    29  O    4.827839   3.659479   2.373724   1.344829   2.385597
    30  O    5.586843   4.157291   3.611976   2.333839   1.359699
    31  H    6.763214   7.512967   8.909503   9.797986   9.465267
    32  H    6.285123   5.999326   7.196171   7.390215   6.426546
    33  H    5.724519   7.063937   8.166625   9.452272   9.768084
    34  H    3.552072   4.777974   5.066374   6.432800   7.386388
    35  H    2.683926   2.168279   1.090288   2.137124   3.395998
    36  H    4.626609   3.418613   3.879680   3.414270   2.150647
    37  H    8.508928   8.338403   9.558539   9.743686   8.730282
    38  H    9.183590   9.482579  10.852000  11.383317  10.639772
    39  H    7.254337   8.676211   9.562914  10.926334  11.468650
    40  H    6.724652   8.096666   8.569145   9.948038  10.821743
    41  H    5.588067   4.313184   3.160141   1.882902   2.369264
    42  H    6.049918   4.632383   4.327303   3.161526   1.922972
                   21         22         23         24         25
    21  C    0.000000
    22  C    1.405608   0.000000
    23  C    3.568307   2.643420   0.000000
    24  C    2.456782   1.429507   1.213975   0.000000
    25  O    7.757810   7.332503   4.887958   5.986221   0.000000
    26  O    9.038064   8.234592   5.591298   6.805263   2.655469
    27  O   10.421807   9.032454   8.448498   8.630272  11.324921
    28  O    9.655546   8.376153   8.601547   8.405033  12.390350
    29  O    3.647744   4.161537   6.804934   5.590972  11.358366
    30  O    2.431455   3.700818   5.986163   4.887763   9.838190
    31  H    8.185172   7.078953   4.638343   5.740323   4.469130
    32  H    5.060408   4.763565   2.670544   3.536082   2.711474
    33  H    8.888641   7.489979   6.279198   6.742208   8.644741
    34  H    7.205594   6.011406   6.763448   6.301190  11.136077
    35  H    3.877103   3.426627   5.739515   4.637808  10.613267
    36  H    1.092770   2.160726   3.536885   2.671098   7.134549
    37  H    7.384436   7.127999   4.876208   5.865186   0.961024
    38  H    9.255343   8.577697   5.953108   7.155615   2.111049
    39  H   10.761743   9.358736   8.503502   8.817046  10.980630
    40  H   10.469361   9.158434   9.181283   9.084700  12.708824
    41  H    3.747772   4.550008   7.157009   5.954387  11.500192
    42  H    2.500239   3.893752   5.864589   4.875429   9.327988
                   26         27         28         29         30
    26  O    0.000000
    27  O    9.731994   0.000000
    28  O   11.270076   2.655629   0.000000
    29  O   12.396120  11.240558   9.634679   0.000000
    30  O   11.358207  12.385025  11.243345   2.656896   0.000000
    31  H    2.604082   7.138738   8.694086  11.115232  10.613828
    32  H    4.532712  10.596966  11.099968   8.683965   7.133889
    33  H    7.029474   2.711634   4.533096  10.532422  11.116390
    34  H   10.550429   4.469878   2.604460   7.042622   8.663263
    35  H   11.114914   8.660552   7.043554   2.603901   4.470108
    36  H    8.684491  11.118308  10.536870   4.532990   2.710777
    37  H    3.613074  11.925536  12.826399  11.024739   9.328481
    38  H    0.965622  10.676353  12.155413  12.723864  11.498061
    39  H    9.215949   0.961123   3.613320  11.845955  12.828165
    40  H   11.402696   2.111752   0.965595  10.580198  12.132242
    41  H   12.725588  12.130151  10.580519   0.965494   2.114103
    42  H   11.023899  12.828239  11.848752   3.614423   0.961015
                   31         32         33         34         35
    31  H    0.000000
    32  H    4.969529   0.000000
    33  H    4.430816   8.130822   0.000000
    34  H    8.163851   9.406404   4.970607   0.000000
    35  H    9.419405   8.147466   8.147308   4.444709   0.000000
    36  H    8.148677   4.426310   9.385917   8.152493   4.969861
    37  H    5.267498   2.366496   9.281960  11.404665  10.496595
    38  H    3.538428   4.455594   7.969242  11.330121  11.611513
    39  H    6.660234  10.479860   2.366379   5.268273   9.297983
    40  H    8.801970  11.596546   4.456521   3.538950   7.983652
    41  H   11.613386   8.795309  11.312478   7.983179   3.538501
    42  H   10.496467   6.657600  11.383717   9.300937   5.268057
                   36         37         38         39         40
    36  H    0.000000
    37  H    6.658708   0.000000
    38  H    8.793864   3.053088   0.000000
    39  H   11.385537  11.638732  10.173649   0.000000
    40  H   11.315874  13.204108  12.316339   3.053903   0.000000
    41  H    4.457543  11.090899  12.986834  12.710065  11.522097
    42  H    2.365137   8.750838  11.088075  13.212658  12.712057
                   41         42
    41  H    0.000000
    42  H    3.056267   0.000000
 Stoichiometry    C24H12O6
 Framework group  C1[X(C24H12O6)]
 Deg. of freedom   120
 Full point group                 C1      NOp   1
 Largest Abelian subgroup         C1      NOp   1
 Largest concise Abelian subgroup C1      NOp   1
                         Standard orientation:                         
 ---------------------------------------------------------------------
 Center     Atomic      Atomic             Coordinates (Angstroms)
 Number     Number       Type             X           Y           Z
 ---------------------------------------------------------------------
      1          6           0        0.444092    4.196962    0.000087
      2          6           0        0.056549    2.847363    0.000122
      3          6           0       -1.319053    2.517985    0.000048
      4          6           0       -2.267639    3.555287   -0.000063
      5          6           0       -1.868975    4.881681   -0.000100
      6          6           0       -0.500451    5.213258   -0.000023
      7          6           0        1.048974    1.817520    0.000244
      8          6           0        1.879055    0.932183    0.000316
      9          6           0        2.846306   -0.120221    0.000142
     10          6           0        4.218132    0.185208    0.000048
     11          6           0        5.168506   -0.822275   -0.000084
     12          6           0        4.772997   -2.173954   -0.000132
     13          6           0        3.420923   -2.486059   -0.000043
     14          6           0        2.445350   -1.476393    0.000090
     15          6           0        1.057286   -1.821757    0.000198
     16          6           0       -0.123616   -2.100221    0.000261
     17          6           0       -1.519012   -2.414310    0.000124
     18          6           0       -1.936092   -3.754881    0.000086
     19          6           0       -3.283734   -4.085316   -0.000016
     20          6           0       -4.245300   -3.056469   -0.000093
     21          6           0       -3.849918   -1.729014   -0.000065
     22          6           0       -2.487442   -1.383482    0.000054
     23          6           0       -1.747754    1.154338    0.000078
     24          6           0       -2.096090   -0.008588    0.000081
     25          8           0       -2.715880    5.945462   -0.000205
     26          8           0       -0.119678    6.503355   -0.000058
     27          8           0        6.512583   -0.618781   -0.000193
     28          8           0        5.700892   -3.147323   -0.000259
     29          8           0       -3.673313   -5.372480   -0.000039
     30          8           0       -5.537548   -3.479408   -0.000226
     31          1           0        1.500911    4.464989    0.000145
     32          1           0       -3.331279    3.304746   -0.000122
     33          1           0        4.530961    1.232201    0.000081
     34          1           0        3.125533   -3.535577   -0.000072
     35          1           0       -1.199756   -4.558957    0.000155
     36          1           0       -4.601213   -0.935477   -0.000144
     37          1           0       -3.631059    5.652178   -0.000340
     38          1           0       -0.916291    7.049096   -0.000150
     39          1           0        6.714800    0.320828    0.000176
     40          1           0        6.571509   -2.729711   -0.000242
     41          1           0       -4.638592   -5.392863   -0.000032
     42          1           0       -6.140548   -2.731116    0.000230
 ---------------------------------------------------------------------
 Rotational constants (GHZ):           0.1167702           0.1164724           0.0583106
 Standard basis: def2SVP (5D, 7F)
 There are   510 symmetry adapted cartesian basis functions of A   symmetry.
 There are   480 symmetry adapted basis functions of A   symmetry.
   480 basis functions,   834 primitive gaussians,   510 cartesian basis functions
   102 alpha electrons      102 beta electrons
       nuclear repulsion energy      2461.3374401546 Hartrees.
 NAtoms=   42 NActive=   42 NUniq=   42 SFac= 1.00D+00 NAtFMM=   60 NAOKFM=F Big=F
 Integral buffers will be    131072 words long.
 Raffenetti 2 integral format.
 Two-electron integral symmetry is turned on.
 Nuclear repulsion after empirical dispersion term =     2461.3103752543 Hartrees.
 ------------------------------------------------------------------------------
 Polarizable Continuum Model (PCM)
 =================================
 Model                : PCM.
 Atomic radii         : SMD-Coulomb.
 Polarization charges : Total charges.
 Charge compensation  : None.
 Solution method      : On-the-fly selection.
 Cavity type          : VdW (van der Waals Surface) (Alpha=1.000).
 Cavity algorithm     : GePol (No added spheres)
                        Default sphere list used, NSphG=   42.
                        Lebedev-Laikov grids with approx.  5.0 points / Ang**2.
                        Smoothing algorithm: York/Karplus (Gamma=1.0000).
                        Polarization charges: spherical gaussians, with
                                              point-specific exponents (IZeta= 3).
                        Self-potential: point-specific (ISelfS= 7).
                        Self-field    : sphere-specific E.n sum rule (ISelfD= 2).
 1st derivatives      : Analytical E(r).r(x)/FMM algorithm (CHGder, D1EAlg=3).
                        Cavity 1st derivative terms included.
 Solvent              : 2-Propanol, Eps=  19.264000 Eps(inf)=   1.897782
 ------------------------------------------------------------------------------
 ------------------------------------------------------------------------------
 Atomic radii for non-electrostatic terms: SMD-CDS.
 ------------------------------------------------------------------------------
 Nuclear repulsion after PCM non-electrostatic terms =     2461.3116192100 Hartrees.
 One-electron integrals computed using PRISM.
   1 Symmetry operations used in ECPInt.
 ECPInt:  NShTT=   23436 NPrTT=   88836 LenC2=   18139 LenP2D=   44630.
 LDataN:  DoStor=T MaxTD1= 4 Len=   56
 NBasis=   480 RedAO= T EigKep=  1.44D-04  NBF=   480
 NBsUse=   480 1.00D-06 EigRej= -1.00D+00 NBFU=   480
 ExpMin= 1.22D-01 ExpMax= 2.27D+03 ExpMxC= 3.41D+02 IAcc=3 IRadAn=         5 AccDes= 0.00D+00
 Harris functional with IExCor= 4639 and IRadAn=       5 diagonalized for initial guess.
 HarFok:  IExCor= 4639 AccDes= 0.00D+00 IRadAn=         5 IDoV= 1 UseB2=F ITyADJ=14
 ICtDFT=  3500011 ScaDFX=  1.000000  1.000000  1.000000  1.000000
 FoFCou: FMM=F IPFlag=           0 FMFlag=      100000 FMFlg1=           0
         NFxFlg=           0 DoJE=T BraDBF=F KetDBF=T FulRan=T
         wScrn=  0.000000 ICntrl=       500 IOpCl=  0 I1Cent=   200000004 NGrid=           0
         NMat0=    1 NMatS0=      1 NMatT0=    0 NMatD0=    1 NMtDS0=    0 NMtDT0=    0
 Petite list used in FoFCou.
 Requested convergence on RMS density matrix=1.00D-08 within  32 cycles.
 Requested convergence on MAX density matrix=1.00D-06.
 Requested convergence on             energy=1.00D-06.
 No special actions if energy rises.
 Inv3:  Mode=1 IEnd=    36645075.
 Iteration    1 A*A^-1 deviation from unit magnitude is 3.11D-15 for    495.
 Iteration    1 A*A^-1 deviation from orthogonality  is 2.48D-15 for   2173   1825.
 Iteration    1 A^-1*A deviation from unit magnitude is 3.22D-15 for    495.
 Iteration    1 A^-1*A deviation from orthogonality  is 4.03D-15 for   2434   2255.
 Error on total polarization charges =  0.04016
 SCF Done:  E(RwB97XD) =  -1371.55853673     A.U. after   14 cycles
            NFock= 14  Conv=0.56D-08     -V/T= 2.0097
 SMD-CDS (non-electrostatic) energy       (kcal/mol) =       0.78
 (included in total energy above)
 QCSCF skips out because SCF is already converged.

 **********************************************************************

            Population analysis using the SCF density.

 **********************************************************************

 Orbital symmetries:
       Occupied  (A) (A) (A) (A) (A) (A) (A) (A) (A) (A) (A) (A)
                 (A) (A) (A) (A) (A) (A) (A) (A) (A) (A) (A) (A)
                 (A) (A) (A) (A) (A) (A) (A) (A) (A) (A) (A) (A)
                 (A) (A) (A) (A) (A) (A) (A) (A) (A) (A) (A) (A)
                 (A) (A) (A) (A) (A) (A) (A) (A) (A) (A) (A) (A)
                 (A) (A) (A) (A) (A) (A) (A) (A) (A) (A) (A) (A)
                 (A) (A) (A) (A) (A) (A) (A) (A) (A) (A) (A) (A)
                 (A) (A) (A) (A) (A) (A) (A) (A) (A) (A) (A) (A)
                 (A) (A) (A) (A) (A) (A)
       Virtual   (A) (A) (A) (A) (A) (A) (A) (A) (A) (A) (A) (A)
                 (A) (A) (A) (A) (A) (A) (A) (A) (A) (A) (A) (A)
                 (A) (A) (A) (A) (A) (A) (A) (A) (A) (A) (A) (A)
                 (A) (A) (A) (A) (A) (A) (A) (A) (A) (A) (A) (A)
                 (A) (A) (A) (A) (A) (A) (A) (A) (A) (A) (A) (A)
                 (A) (A) (A) (A) (A) (A) (A) (A) (A) (A) (A) (A)
                 (A) (A) (A) (A) (A) (A) (A) (A) (A) (A) (A) (A)
                 (A) (A) (A) (A) (A) (A) (A) (A) (A) (A) (A) (A)
                 (A) (A) (A) (A) (A) (A) (A) (A) (A) (A) (A) (A)
                 (A) (A) (A) (A) (A) (A) (A) (A) (A) (A) (A) (A)
                 (A) (A) (A) (A) (A) (A) (A) (A) (A) (A) (A) (A)
                 (A) (A) (A) (A) (A) (A) (A) (A) (A) (A) (A) (A)
                 (A) (A) (A) (A) (A) (A) (A) (A) (A) (A) (A) (A)
                 (A) (A) (A) (A) (A) (A) (A) (A) (A) (A) (A) (A)
                 (A) (A) (A) (A) (A) (A) (A) (A) (A) (A) (A) (A)
                 (A) (A) (A) (A) (A) (A) (A) (A) (A) (A) (A) (A)
                 (A) (A) (A) (A) (A) (A) (A) (A) (A) (A) (A) (A)
                 (A) (A) (A) (A) (A) (A) (A) (A) (A) (A) (A) (A)
                 (A) (A) (A) (A) (A) (A) (A) (A) (A) (A) (A) (A)
                 (A) (A) (A) (A) (A) (A) (A) (A) (A) (A) (A) (A)
                 (A) (A) (A) (A) (A) (A) (A) (A) (A) (A) (A) (A)
                 (A) (A) (A) (A) (A) (A) (A) (A) (A) (A) (A) (A)
                 (A) (A) (A) (A) (A) (A) (A) (A) (A) (A) (A) (A)
                 (A) (A) (A) (A) (A) (A) (A) (A) (A) (A) (A) (A)
                 (A) (A) (A) (A) (A) (A) (A) (A) (A) (A) (A) (A)
                 (A) (A) (A) (A) (A) (A) (A) (A) (A) (A) (A) (A)
                 (A) (A) (A) (A) (A) (A) (A) (A) (A) (A) (A) (A)
                 (A) (A) (A) (A) (A) (A) (A) (A) (A) (A) (A) (A)
                 (A) (A) (A) (A) (A) (A) (A) (A) (A) (A) (A) (A)
                 (A) (A) (A) (A) (A) (A) (A) (A) (A) (A) (A) (A)
                 (A) (A) (A) (A) (A) (A) (A) (A) (A) (A) (A) (A)
                 (A) (A) (A) (A) (A) (A)
 The electronic state is 1-A.
 Alpha  occ. eigenvalues --  -19.29862 -19.29837 -19.29823 -19.29204 -19.29173
 Alpha  occ. eigenvalues --  -19.29167 -10.37220 -10.37208 -10.37187 -10.37043
 Alpha  occ. eigenvalues --  -10.37025 -10.37013 -10.33822 -10.33800 -10.33776
 Alpha  occ. eigenvalues --  -10.33766 -10.33746 -10.33718 -10.31555 -10.31542
 Alpha  occ. eigenvalues --  -10.31513 -10.31268 -10.31221 -10.31185 -10.31184
 Alpha  occ. eigenvalues --  -10.31159 -10.31148 -10.31041 -10.30992 -10.30958
 Alpha  occ. eigenvalues --   -1.17839  -1.17813  -1.17811  -1.14731  -1.14714
 Alpha  occ. eigenvalues --   -1.14703  -0.97704  -0.97247  -0.97231  -0.89258
 Alpha  occ. eigenvalues --   -0.88882  -0.88839  -0.86648  -0.86559  -0.86380
 Alpha  occ. eigenvalues --   -0.82338  -0.82266  -0.80586  -0.75801  -0.75180
 Alpha  occ. eigenvalues --   -0.74342  -0.74079  -0.72476  -0.71530  -0.67597
 Alpha  occ. eigenvalues --   -0.66839  -0.65863  -0.65622  -0.65130  -0.64966
 Alpha  occ. eigenvalues --   -0.60916  -0.60742  -0.60137  -0.59566  -0.59186
 Alpha  occ. eigenvalues --   -0.58510  -0.54080  -0.53939  -0.53921  -0.53692
 Alpha  occ. eigenvalues --   -0.53248  -0.53070  -0.52620  -0.52386  -0.52175
 Alpha  occ. eigenvalues --   -0.50640  -0.50386  -0.50340  -0.48562  -0.47504
 Alpha  occ. eigenvalues --   -0.47277  -0.47236  -0.47126  -0.47096  -0.47006
 Alpha  occ. eigenvalues --   -0.46503  -0.46441  -0.44508  -0.44487  -0.44450
 Alpha  occ. eigenvalues --   -0.40209  -0.40127  -0.37658  -0.36745  -0.35994
 Alpha  occ. eigenvalues --   -0.35968  -0.34516  -0.32729  -0.32421  -0.29306
 Alpha  occ. eigenvalues --   -0.29036  -0.25613
 Alpha virt. eigenvalues --   -0.01742   0.02750   0.02775   0.06141   0.07642
 Alpha virt. eigenvalues --    0.07662   0.10525   0.10574   0.12697   0.14583
 Alpha virt. eigenvalues --    0.14722   0.14898   0.15941   0.16753   0.17311
 Alpha virt. eigenvalues --    0.18613   0.18753   0.18767   0.18824   0.19613
 Alpha virt. eigenvalues --    0.20438   0.21022   0.21571   0.22530   0.25669
 Alpha virt. eigenvalues --    0.25740   0.26294   0.27125   0.27147   0.28762
 Alpha virt. eigenvalues --    0.29770   0.30025   0.30506   0.30691   0.31915
 Alpha virt. eigenvalues --    0.32100   0.32367   0.32929   0.33047   0.34145
 Alpha virt. eigenvalues --    0.34846   0.35691   0.36090   0.36611   0.37819
 Alpha virt. eigenvalues --    0.37984   0.38354   0.38452   0.39692   0.39946
 Alpha virt. eigenvalues --    0.40783   0.42172   0.43085   0.43628   0.43779
 Alpha virt. eigenvalues --    0.44993   0.45485   0.47604   0.47718   0.47858
 Alpha virt. eigenvalues --    0.50016   0.50268   0.50405   0.50588   0.51656
 Alpha virt. eigenvalues --    0.53175   0.53192   0.55597   0.56851   0.56915
 Alpha virt. eigenvalues --    0.57423   0.57949   0.58096   0.60232   0.60262
 Alpha virt. eigenvalues --    0.60594   0.60838   0.60929   0.61017   0.61583
 Alpha virt. eigenvalues --    0.61648   0.61977   0.62574   0.63397   0.65174
 Alpha virt. eigenvalues --    0.65214   0.65682   0.66111   0.66229   0.66292
 Alpha virt. eigenvalues --    0.67205   0.67341   0.68141   0.68307   0.68894
 Alpha virt. eigenvalues --    0.69020   0.69779   0.69998   0.70195   0.70980
 Alpha virt. eigenvalues --    0.71811   0.72192   0.73076   0.73471   0.74712
 Alpha virt. eigenvalues --    0.74733   0.76052   0.76087   0.76739   0.77924
 Alpha virt. eigenvalues --    0.78033   0.80085   0.81652   0.81816   0.81931
 Alpha virt. eigenvalues --    0.82593   0.82649   0.83512   0.83719   0.83830
 Alpha virt. eigenvalues --    0.84614   0.85664   0.85767   0.87752   0.88110
 Alpha virt. eigenvalues --    0.88154   0.88867   0.89482   0.89663   0.91567
 Alpha virt. eigenvalues --    0.91940   0.93249   0.95038   0.95355   0.97724
 Alpha virt. eigenvalues --    0.98774   0.99516   1.00827   1.01258   1.01653
 Alpha virt. eigenvalues --    1.02681   1.02902   1.03278   1.03445   1.04476
 Alpha virt. eigenvalues --    1.04494   1.07733   1.07928   1.07987   1.09207
 Alpha virt. eigenvalues --    1.09726   1.11497   1.12367   1.12370   1.12746
 Alpha virt. eigenvalues --    1.13584   1.14104   1.15481   1.16614   1.17447
 Alpha virt. eigenvalues --    1.18598   1.18791   1.21332   1.22191   1.23192
 Alpha virt. eigenvalues --    1.23772   1.24479   1.25315   1.26306   1.28086
 Alpha virt. eigenvalues --    1.28697   1.28900   1.28923   1.29876   1.30327
 Alpha virt. eigenvalues --    1.30755   1.32691   1.32988   1.33269   1.33688
 Alpha virt. eigenvalues --    1.34112   1.34520   1.34680   1.34924   1.34993
 Alpha virt. eigenvalues --    1.39477   1.39729   1.43069   1.43360   1.43420
 Alpha virt. eigenvalues --    1.43634   1.43988   1.44164   1.44240   1.44360
 Alpha virt. eigenvalues --    1.45760   1.50293   1.52703   1.55936   1.56315
 Alpha virt. eigenvalues --    1.56654   1.57022   1.57273   1.59009   1.59111
 Alpha virt. eigenvalues --    1.59334   1.62206   1.62454   1.63202   1.63445
 Alpha virt. eigenvalues --    1.64240   1.64480   1.64612   1.64709   1.64803
 Alpha virt. eigenvalues --    1.65365   1.65959   1.66451   1.67861   1.73492
 Alpha virt. eigenvalues --    1.74717   1.76077   1.76387   1.76747   1.77552
 Alpha virt. eigenvalues --    1.78355   1.78382   1.80385   1.80765   1.80976
 Alpha virt. eigenvalues --    1.81288   1.82079   1.82825   1.83240   1.83401
 Alpha virt. eigenvalues --    1.84653   1.84887   1.84959   1.87683   1.88766
 Alpha virt. eigenvalues --    1.89449   1.89773   1.89951   1.93259   1.94598
 Alpha virt. eigenvalues --    1.94982   1.95458   1.96153   1.96338   1.96372
 Alpha virt. eigenvalues --    1.96569   1.96838   1.98371   1.99519   2.00193
 Alpha virt. eigenvalues --    2.00208   2.00330   2.00559   2.00705   2.00902
 Alpha virt. eigenvalues --    2.01401   2.02371   2.03033   2.04118   2.06082
 Alpha virt. eigenvalues --    2.09328   2.10138   2.10497   2.11330   2.15208
 Alpha virt. eigenvalues --    2.15535   2.17836   2.17964   2.18398   2.18756
 Alpha virt. eigenvalues --    2.18792   2.23560   2.24058   2.24672   2.25340
 Alpha virt. eigenvalues --    2.25610   2.27792   2.29949   2.30169   2.30273
 Alpha virt. eigenvalues --    2.30800   2.31147   2.31404   2.32243   2.32654
 Alpha virt. eigenvalues --    2.32766   2.33586   2.34088   2.34640   2.34653
 Alpha virt. eigenvalues --    2.35194   2.36004   2.36477   2.36914   2.38641
 Alpha virt. eigenvalues --    2.38642   2.42450   2.42465   2.43218   2.48100
 Alpha virt. eigenvalues --    2.48184   2.49071   2.50534   2.50752   2.58983
 Alpha virt. eigenvalues --    2.60974   2.61463   2.67051   2.67901   2.68072
 Alpha virt. eigenvalues --    2.68097   2.68914   2.70918   2.72168   2.72199
 Alpha virt. eigenvalues --    2.72625   2.73178   2.73965   2.74177   2.83090
 Alpha virt. eigenvalues --    2.85998   2.88282   2.88965   2.90818   2.91445
 Alpha virt. eigenvalues --    2.91809   2.93752   2.94117   2.94615   2.96294
 Alpha virt. eigenvalues --    2.96841   2.97896   2.98520   3.00431   3.00810
 Alpha virt. eigenvalues --    3.01008   3.05944   3.06578   3.06623   3.06647
 Alpha virt. eigenvalues --    3.08910   3.09508   3.10180   3.10948   3.10996
 Alpha virt. eigenvalues --    3.12279   3.22340   3.22715   3.23254   3.28715
 Alpha virt. eigenvalues --    3.29060   3.32402   3.36357   3.38132   3.38258
 Alpha virt. eigenvalues --    3.41976   3.43111   3.46343   3.55551   3.55682
 Alpha virt. eigenvalues --    3.57267   3.59706   3.60518   3.61070   3.74859
 Alpha virt. eigenvalues --    3.75323   3.85216   3.89182   3.89257   3.89886
 Alpha virt. eigenvalues --    3.95403   3.95482   3.99769
          Condensed to atoms (all electrons):
               1          2          3          4          5          6
     1  C    5.198871   0.275324   0.080099  -0.100769   0.064613   0.283718
     2  C    0.275324   5.530119   0.238599   0.074758  -0.171879   0.135622
     3  C    0.080099   0.238599   5.566326   0.226956   0.153897  -0.163121
     4  C   -0.100769   0.074758   0.226956   5.337451   0.174049   0.091026
     5  C    0.064613  -0.171879   0.153897   0.174049   5.333939   0.044045
     6  C    0.283718   0.135622  -0.163121   0.091026   0.044045   5.158914
     7  C   -0.082370   0.193957  -0.047053   0.009395   0.000097   0.009794
     8  C   -0.007758  -0.173975  -0.004134   0.000067  -0.000011   0.000582
     9  C   -0.000370   0.009442  -0.000676   0.000015  -0.000003   0.000032
    10  C   -0.000007  -0.000339   0.000012   0.000000   0.000000   0.000000
    11  C    0.000000   0.000033  -0.000000   0.000000  -0.000000   0.000000
    12  C    0.000000  -0.000003   0.000000   0.000000  -0.000000  -0.000000
    13  C    0.000000   0.000016  -0.000001   0.000000   0.000000   0.000000
    14  C    0.000010  -0.000635   0.000039  -0.000001   0.000000  -0.000000
    15  C   -0.000002   0.000072  -0.000083  -0.000003   0.000000  -0.000000
    16  C   -0.000004  -0.000097   0.000062  -0.000003   0.000000   0.000000
    17  C   -0.000001   0.000039  -0.000659   0.000012  -0.000000   0.000000
    18  C    0.000000  -0.000001   0.000016   0.000000   0.000000   0.000000
    19  C    0.000000   0.000000  -0.000003   0.000000  -0.000000  -0.000000
    20  C    0.000000  -0.000000   0.000033   0.000000   0.000000  -0.000000
    21  C    0.000000   0.000012  -0.000325  -0.000011   0.000000   0.000000
    22  C    0.000016  -0.000664   0.009700  -0.000325   0.000033  -0.000003
    23  C    0.009841  -0.047809   0.175649  -0.068911   0.007973  -0.000525
    24  C    0.000259  -0.003371  -0.173750  -0.006740   0.000554  -0.000098
    25  O    0.003125   0.000206   0.005127  -0.070282   0.421358  -0.098796
    26  O   -0.074922   0.003905  -0.000187   0.005349  -0.095088   0.465470
    27  O    0.000000   0.000000  -0.000000   0.000000  -0.000000  -0.000000
    28  O   -0.000000  -0.000000   0.000000  -0.000000   0.000000  -0.000000
    29  O   -0.000000   0.000000  -0.000000  -0.000000  -0.000000   0.000000
    30  O    0.000000  -0.000000   0.000000   0.000000  -0.000000  -0.000000
    31  H    0.462849  -0.067647   0.016539  -0.003960   0.021943  -0.070811
    32  H   -0.002755   0.016240  -0.057049   0.459777  -0.067819   0.016171
    33  H    0.000007  -0.000209  -0.000000   0.000000  -0.000000   0.000001
    34  H   -0.000000   0.000000  -0.000000  -0.000000   0.000000  -0.000000
    35  H   -0.000000  -0.000000   0.000000  -0.000000  -0.000000   0.000000
    36  H    0.000000  -0.000000  -0.000210   0.000005   0.000001  -0.000000
    37  H   -0.000339  -0.000031   0.000538  -0.017181  -0.006496   0.008833
    38  H    0.008533  -0.000247  -0.000306   0.002362  -0.028940  -0.014572
    39  H   -0.000000   0.000000  -0.000000   0.000000  -0.000000  -0.000000
    40  H   -0.000000  -0.000000   0.000000  -0.000000  -0.000000   0.000000
    41  H   -0.000000   0.000000  -0.000000  -0.000000   0.000000  -0.000000
    42  H    0.000000  -0.000000   0.000000   0.000000   0.000000  -0.000000
               7          8          9         10         11         12
     1  C   -0.082370  -0.007758  -0.000370  -0.000007   0.000000   0.000000
     2  C    0.193957  -0.173975   0.009442  -0.000339   0.000033  -0.000003
     3  C   -0.047053  -0.004134  -0.000676   0.000012  -0.000000   0.000000
     4  C    0.009395   0.000067   0.000015   0.000000   0.000000   0.000000
     5  C    0.000097  -0.000011  -0.000003   0.000000  -0.000000  -0.000000
     6  C    0.009794   0.000582   0.000032   0.000000   0.000000  -0.000000
     7  C    5.392319   0.804873  -0.177267  -0.007033   0.000575  -0.000101
     8  C    0.804873   5.391646   0.175961  -0.068943   0.008015  -0.000534
     9  C   -0.177267   0.175961   5.570531   0.227490   0.154260  -0.163476
    10  C   -0.007033  -0.068943   0.227490   5.336905   0.173243   0.091227
    11  C    0.000575   0.008015   0.154260   0.173243   5.333993   0.044562
    12  C   -0.000101  -0.000534  -0.163476   0.091227   0.044562   5.158581
    13  C    0.000269   0.009873   0.080469  -0.100537   0.064553   0.283307
    14  C   -0.002763  -0.047612   0.236788   0.074963  -0.172122   0.135874
    15  C    0.000212  -0.033417  -0.046984   0.009441   0.000078   0.009860
    16  C   -0.003569   0.000348  -0.003667   0.000078  -0.000014   0.000600
    17  C   -0.000096   0.000068  -0.000643   0.000015  -0.000003   0.000032
    18  C   -0.000004  -0.000002   0.000010   0.000000   0.000000   0.000000
    19  C    0.000000  -0.000000  -0.000000   0.000000  -0.000000   0.000000
    20  C    0.000000   0.000000   0.000000   0.000000   0.000000  -0.000000
    21  C   -0.000003  -0.000003  -0.000001   0.000000   0.000000   0.000000
    22  C    0.000068  -0.000089   0.000038  -0.000001   0.000000  -0.000000
    23  C   -0.033214   0.000386   0.000068  -0.000003   0.000000   0.000000
    24  C    0.000278  -0.003407  -0.000090  -0.000003   0.000000  -0.000000
    25  O    0.000004   0.000000   0.000000   0.000000  -0.000000   0.000000
    26  O   -0.000092  -0.000000   0.000000   0.000000  -0.000000  -0.000000
    27  O   -0.000000  -0.000128   0.005138  -0.070369   0.421507  -0.098674
    28  O   -0.000000   0.000005  -0.000186   0.005344  -0.095041   0.465583
    29  O   -0.000000   0.000000  -0.000000   0.000000  -0.000000  -0.000000
    30  O    0.000000  -0.000000  -0.000000  -0.000000   0.000000  -0.000000
    31  H   -0.014911  -0.002718  -0.000188   0.000003   0.000001  -0.000000
    32  H   -0.000056   0.000019   0.000000  -0.000000  -0.000000   0.000000
    33  H   -0.002780  -0.014354  -0.056852   0.459963  -0.067960   0.016111
    34  H    0.000014  -0.000061   0.016516  -0.003952   0.021864  -0.070851
    35  H   -0.000001  -0.000000  -0.000000   0.000000  -0.000000   0.000001
    36  H   -0.000000  -0.000001  -0.000000  -0.000000   0.000000  -0.000000
    37  H    0.000000   0.000000  -0.000000   0.000000  -0.000000   0.000000
    38  H    0.000012  -0.000000   0.000000  -0.000000   0.000000  -0.000000
    39  H    0.000001  -0.000029   0.000542  -0.017188  -0.006522   0.008811
    40  H    0.000000   0.000005  -0.000307   0.002367  -0.028957  -0.014561
    41  H   -0.000000   0.000000   0.000000  -0.000000  -0.000000   0.000000
    42  H    0.000000   0.000000   0.000000  -0.000000   0.000000  -0.000000
              13         14         15         16         17         18
     1  C    0.000000   0.000010  -0.000002  -0.000004  -0.000001   0.000000
     2  C    0.000016  -0.000635   0.000072  -0.000097   0.000039  -0.000001
     3  C   -0.000001   0.000039  -0.000083   0.000062  -0.000659   0.000016
     4  C    0.000000  -0.000001  -0.000003  -0.000003   0.000012   0.000000
     5  C    0.000000   0.000000   0.000000   0.000000  -0.000000   0.000000
     6  C    0.000000  -0.000000  -0.000000   0.000000   0.000000   0.000000
     7  C    0.000269  -0.002763   0.000212  -0.003569  -0.000096  -0.000004
     8  C    0.009873  -0.047612  -0.033417   0.000348   0.000068  -0.000002
     9  C    0.080469   0.236788  -0.046984  -0.003667  -0.000643   0.000010
    10  C   -0.100537   0.074963   0.009441   0.000078   0.000015   0.000000
    11  C    0.064553  -0.172122   0.000078  -0.000014  -0.000003   0.000000
    12  C    0.283307   0.135874   0.009860   0.000600   0.000032   0.000000
    13  C    5.198118   0.275336  -0.082446  -0.007939  -0.000387  -0.000003
    14  C    0.275336   5.533639   0.194746  -0.177371   0.009140  -0.000388
    15  C   -0.082446   0.194746   5.395552   0.799551  -0.176641  -0.008120
    16  C   -0.007939  -0.177371   0.799551   5.396549   0.195077  -0.082549
    17  C   -0.000387   0.009140  -0.176641   0.195077   5.532929   0.275793
    18  C   -0.000003  -0.000388  -0.008120  -0.082549   0.275793   5.198202
    19  C    0.000000   0.000032   0.000607   0.009861   0.135764   0.283469
    20  C    0.000000  -0.000003  -0.000012   0.000079  -0.171855   0.064358
    21  C    0.000000   0.000015   0.000063   0.009402   0.074654  -0.100585
    22  C    0.000010  -0.000647  -0.003687  -0.047052   0.237676   0.080474
    23  C   -0.000004  -0.000104  -0.003465   0.000427  -0.003300   0.000276
    24  C   -0.000002   0.000078   0.000200  -0.033286  -0.047757   0.009902
    25  O   -0.000000  -0.000000  -0.000000   0.000000  -0.000000   0.000000
    26  O    0.000000  -0.000000   0.000000  -0.000000   0.000000  -0.000000
    27  O    0.003110   0.000208   0.000004   0.000000   0.000000   0.000000
    28  O   -0.074940   0.003902  -0.000092  -0.000000   0.000000   0.000000
    29  O    0.000000   0.000000  -0.000000  -0.000092   0.003908  -0.075016
    30  O    0.000000   0.000000   0.000000   0.000004   0.000206   0.003101
    31  H    0.000000  -0.000000  -0.000000  -0.000001  -0.000000  -0.000000
    32  H   -0.000000  -0.000000  -0.000001  -0.000000  -0.000000   0.000000
    33  H   -0.002751   0.016222  -0.000056   0.000019   0.000000  -0.000000
    34  H    0.463000  -0.067445  -0.014900  -0.002699  -0.000185   0.000005
    35  H    0.000005  -0.000187  -0.002723  -0.014879  -0.067548   0.462921
    36  H   -0.000000   0.000000   0.000019  -0.000055   0.016240  -0.002759
    37  H   -0.000000   0.000000   0.000000   0.000000  -0.000000   0.000000
    38  H   -0.000000   0.000000   0.000000  -0.000000   0.000000  -0.000000
    39  H   -0.000337  -0.000030   0.000000   0.000000  -0.000000   0.000000
    40  H    0.008541  -0.000248   0.000012  -0.000000   0.000000  -0.000000
    41  H   -0.000000   0.000000  -0.000000   0.000012  -0.000248   0.008534
    42  H    0.000000  -0.000000   0.000000   0.000000  -0.000031  -0.000338
              19         20         21         22         23         24
     1  C    0.000000   0.000000   0.000000   0.000016   0.009841   0.000259
     2  C    0.000000  -0.000000   0.000012  -0.000664  -0.047809  -0.003371
     3  C   -0.000003   0.000033  -0.000325   0.009700   0.175649  -0.173750
     4  C    0.000000   0.000000  -0.000011  -0.000325  -0.068911  -0.006740
     5  C   -0.000000   0.000000   0.000000   0.000033   0.007973   0.000554
     6  C   -0.000000  -0.000000   0.000000  -0.000003  -0.000525  -0.000098
     7  C    0.000000   0.000000  -0.000003   0.000068  -0.033214   0.000278
     8  C   -0.000000   0.000000  -0.000003  -0.000089   0.000386  -0.003407
     9  C   -0.000000   0.000000  -0.000001   0.000038   0.000068  -0.000090
    10  C    0.000000   0.000000   0.000000  -0.000001  -0.000003  -0.000003
    11  C   -0.000000   0.000000   0.000000   0.000000   0.000000   0.000000
    12  C    0.000000  -0.000000   0.000000  -0.000000   0.000000  -0.000000
    13  C    0.000000   0.000000   0.000000   0.000010  -0.000004  -0.000002
    14  C    0.000032  -0.000003   0.000015  -0.000647  -0.000104   0.000078
    15  C    0.000607  -0.000012   0.000063  -0.003687  -0.003465   0.000200
    16  C    0.009861   0.000079   0.009402  -0.047052   0.000427  -0.033286
    17  C    0.135764  -0.171855   0.074654   0.237676  -0.003300  -0.047757
    18  C    0.283469   0.064358  -0.100585   0.080474   0.000276   0.009902
    19  C    5.159387   0.043614   0.090985  -0.163354  -0.000101  -0.000543
    20  C    0.043614   5.334726   0.173807   0.153999   0.000555   0.007988
    21  C    0.090985   0.173807   5.337895   0.226811  -0.006705  -0.068838
    22  C   -0.163354   0.153999   0.226811   5.566919  -0.174242   0.175458
    23  C   -0.000101   0.000555  -0.006705  -0.174242   5.388077   0.810249
    24  C   -0.000543   0.007988  -0.068838   0.175458   0.810249   5.386706
    25  O   -0.000000  -0.000000   0.000000   0.000000  -0.000126  -0.000000
    26  O    0.000000  -0.000000  -0.000000  -0.000000   0.000005  -0.000000
    27  O   -0.000000   0.000000  -0.000000  -0.000000   0.000000  -0.000000
    28  O   -0.000000  -0.000000   0.000000  -0.000000  -0.000000   0.000000
    29  O    0.465736  -0.095101   0.005348  -0.000187  -0.000000   0.000005
    30  O   -0.098772   0.421772  -0.070377   0.005135  -0.000000  -0.000127
    31  H    0.000000  -0.000000  -0.000000   0.000000  -0.000062   0.000014
    32  H   -0.000000   0.000001   0.000005  -0.000210  -0.014388  -0.002797
    33  H   -0.000000   0.000000  -0.000000  -0.000000  -0.000000  -0.000001
    34  H    0.000001  -0.000000   0.000000  -0.000000  -0.000001  -0.000000
    35  H   -0.070752   0.021903  -0.003954   0.016529   0.000014  -0.000062
    36  H    0.016174  -0.067887   0.459749  -0.056991  -0.002791  -0.014396
    37  H   -0.000000   0.000000   0.000000   0.000000  -0.000028   0.000001
    38  H   -0.000000   0.000000  -0.000000  -0.000000   0.000005   0.000000
    39  H   -0.000000   0.000000  -0.000000   0.000000   0.000000   0.000000
    40  H    0.000000  -0.000000  -0.000000   0.000000  -0.000000   0.000000
    41  H   -0.014490  -0.028883   0.002355  -0.000306   0.000000   0.000005
    42  H    0.008847  -0.006540  -0.017245   0.000542   0.000001  -0.000028
              25         26         27         28         29         30
     1  C    0.003125  -0.074922   0.000000  -0.000000  -0.000000   0.000000
     2  C    0.000206   0.003905   0.000000  -0.000000   0.000000  -0.000000
     3  C    0.005127  -0.000187  -0.000000   0.000000  -0.000000   0.000000
     4  C   -0.070282   0.005349   0.000000  -0.000000  -0.000000   0.000000
     5  C    0.421358  -0.095088  -0.000000   0.000000  -0.000000  -0.000000
     6  C   -0.098796   0.465470  -0.000000  -0.000000   0.000000  -0.000000
     7  C    0.000004  -0.000092  -0.000000  -0.000000  -0.000000   0.000000
     8  C    0.000000  -0.000000  -0.000128   0.000005   0.000000  -0.000000
     9  C    0.000000   0.000000   0.005138  -0.000186  -0.000000  -0.000000
    10  C    0.000000   0.000000  -0.070369   0.005344   0.000000  -0.000000
    11  C   -0.000000  -0.000000   0.421507  -0.095041  -0.000000   0.000000
    12  C    0.000000  -0.000000  -0.098674   0.465583  -0.000000  -0.000000
    13  C   -0.000000   0.000000   0.003110  -0.074940   0.000000   0.000000
    14  C   -0.000000  -0.000000   0.000208   0.003902   0.000000   0.000000
    15  C   -0.000000   0.000000   0.000004  -0.000092  -0.000000   0.000000
    16  C    0.000000  -0.000000   0.000000  -0.000000  -0.000092   0.000004
    17  C   -0.000000   0.000000   0.000000   0.000000   0.003908   0.000206
    18  C    0.000000  -0.000000   0.000000   0.000000  -0.075016   0.003101
    19  C   -0.000000   0.000000  -0.000000  -0.000000   0.465736  -0.098772
    20  C   -0.000000  -0.000000   0.000000  -0.000000  -0.095101   0.421772
    21  C    0.000000  -0.000000  -0.000000   0.000000   0.005348  -0.070377
    22  C    0.000000  -0.000000  -0.000000  -0.000000  -0.000187   0.005135
    23  C   -0.000126   0.000005   0.000000  -0.000000  -0.000000  -0.000000
    24  C   -0.000000  -0.000000  -0.000000   0.000000   0.000005  -0.000127
    25  O    7.643390  -0.006128   0.000000   0.000000   0.000000   0.000000
    26  O   -0.006128   7.581960   0.000000   0.000000   0.000000   0.000000
    27  O    0.000000   0.000000   7.643012  -0.006110   0.000000   0.000000
    28  O    0.000000   0.000000  -0.006110   7.581305   0.000000   0.000000
    29  O    0.000000   0.000000   0.000000   0.000000   7.581286  -0.006040
    30  O    0.000000   0.000000   0.000000   0.000000  -0.006040   7.642700
    31  H   -0.000048   0.000346  -0.000000  -0.000000  -0.000000   0.000000
    32  H   -0.004001  -0.000057   0.000000  -0.000000  -0.000000  -0.000000
    33  H   -0.000000  -0.000000  -0.003991  -0.000056  -0.000000  -0.000000
    34  H   -0.000000  -0.000000  -0.000048   0.000345  -0.000000  -0.000000
    35  H    0.000000  -0.000000  -0.000000  -0.000000   0.000351  -0.000048
    36  H   -0.000000  -0.000000  -0.000000  -0.000000  -0.000057  -0.004008
    37  H    0.338473  -0.000021  -0.000000   0.000000   0.000000   0.000000
    38  H    0.025434   0.341220  -0.000000   0.000000   0.000000  -0.000000
    39  H    0.000000   0.000000   0.338545  -0.000022  -0.000000   0.000000
    40  H    0.000000  -0.000000   0.025436   0.341178  -0.000000   0.000000
    41  H   -0.000000   0.000000   0.000000  -0.000000   0.341234   0.025247
    42  H    0.000000   0.000000   0.000000  -0.000000  -0.000022   0.338456
              31         32         33         34         35         36
     1  C    0.462849  -0.002755   0.000007  -0.000000  -0.000000   0.000000
     2  C   -0.067647   0.016240  -0.000209   0.000000  -0.000000  -0.000000
     3  C    0.016539  -0.057049  -0.000000  -0.000000   0.000000  -0.000210
     4  C   -0.003960   0.459777   0.000000  -0.000000  -0.000000   0.000005
     5  C    0.021943  -0.067819  -0.000000   0.000000  -0.000000   0.000001
     6  C   -0.070811   0.016171   0.000001  -0.000000   0.000000  -0.000000
     7  C   -0.014911  -0.000056  -0.002780   0.000014  -0.000001  -0.000000
     8  C   -0.002718   0.000019  -0.014354  -0.000061  -0.000000  -0.000001
     9  C   -0.000188   0.000000  -0.056852   0.016516  -0.000000  -0.000000
    10  C    0.000003  -0.000000   0.459963  -0.003952   0.000000  -0.000000
    11  C    0.000001  -0.000000  -0.067960   0.021864  -0.000000   0.000000
    12  C   -0.000000   0.000000   0.016111  -0.070851   0.000001  -0.000000
    13  C    0.000000  -0.000000  -0.002751   0.463000   0.000005  -0.000000
    14  C   -0.000000  -0.000000   0.016222  -0.067445  -0.000187   0.000000
    15  C   -0.000000  -0.000001  -0.000056  -0.014900  -0.002723   0.000019
    16  C   -0.000001  -0.000000   0.000019  -0.002699  -0.014879  -0.000055
    17  C   -0.000000  -0.000000   0.000000  -0.000185  -0.067548   0.016240
    18  C   -0.000000   0.000000  -0.000000   0.000005   0.462921  -0.002759
    19  C    0.000000  -0.000000  -0.000000   0.000001  -0.070752   0.016174
    20  C   -0.000000   0.000001   0.000000  -0.000000   0.021903  -0.067887
    21  C   -0.000000   0.000005  -0.000000   0.000000  -0.003954   0.459749
    22  C    0.000000  -0.000210  -0.000000  -0.000000   0.016529  -0.056991
    23  C   -0.000062  -0.014388  -0.000000  -0.000001   0.000014  -0.002791
    24  C    0.000014  -0.002797  -0.000001  -0.000000  -0.000062  -0.014396
    25  O   -0.000048  -0.004001  -0.000000  -0.000000   0.000000  -0.000000
    26  O    0.000346  -0.000057  -0.000000  -0.000000  -0.000000  -0.000000
    27  O   -0.000000   0.000000  -0.003991  -0.000048  -0.000000  -0.000000
    28  O   -0.000000  -0.000000  -0.000056   0.000345  -0.000000  -0.000000
    29  O   -0.000000  -0.000000  -0.000000  -0.000000   0.000351  -0.000057
    30  O    0.000000  -0.000000  -0.000000  -0.000000  -0.000048  -0.004008
    31  H    0.621414  -0.000006   0.000020   0.000000  -0.000000   0.000000
    32  H   -0.000006   0.611681   0.000000  -0.000000   0.000000   0.000023
    33  H    0.000020   0.000000   0.610789  -0.000006   0.000000  -0.000000
    34  H    0.000000  -0.000000  -0.000006   0.620526   0.000016   0.000000
    35  H   -0.000000   0.000000   0.000000   0.000016   0.620591  -0.000006
    36  H    0.000000   0.000023  -0.000000   0.000000  -0.000006   0.611870
    37  H    0.000013   0.004027   0.000000   0.000000  -0.000000  -0.000000
    38  H   -0.000494  -0.000047   0.000000   0.000000  -0.000000   0.000000
    39  H   -0.000000  -0.000000   0.004010   0.000013   0.000000   0.000000
    40  H    0.000000  -0.000000  -0.000047  -0.000493  -0.000000   0.000000
    41  H   -0.000000   0.000000   0.000000  -0.000000  -0.000493  -0.000047
    42  H   -0.000000  -0.000000   0.000000   0.000000   0.000013   0.004034
              37         38         39         40         41         42
     1  C   -0.000339   0.008533  -0.000000  -0.000000  -0.000000   0.000000
     2  C   -0.000031  -0.000247   0.000000  -0.000000   0.000000  -0.000000
     3  C    0.000538  -0.000306  -0.000000   0.000000  -0.000000   0.000000
     4  C   -0.017181   0.002362   0.000000  -0.000000  -0.000000   0.000000
     5  C   -0.006496  -0.028940  -0.000000  -0.000000   0.000000   0.000000
     6  C    0.008833  -0.014572  -0.000000   0.000000  -0.000000  -0.000000
[...]
 .00017963,0.00002792,0.00000179,-0.00000001,-0.00000441,0.00000243,0.,
 -0.00008629,-0.00019283,-0.00000004,-0.00005409,-0.00000561,-0.0000000
 2,0.00012216,-0.00006251,0.00000025,-0.00002234,-0.00017276,0.,-0.0000
 0169,0.00000083,0.,0.00000041,-0.00000043,0.,0.00000082,-0.00000835,0.
 ,-0.00000054,0.00000142,0.,-0.00100458,0.00218653,-0.00000032,0.351311
 52,-0.00388446,-0.00387593,0.,0.00153739,0.00004632,0.00000105,-0.0006
 9482,0.00090480,-0.00000058,0.00130739,-0.00109016,0.00000061,0.003049
 53,-0.00065016,0.00000085,0.03414177,-0.03927794,0.00001933,0.00001932
 ,-0.00037378,0.00000039,-0.00007364,0.00006476,-0.00000061,0.00003406,
 -0.00001256,0.00000016,0.00000681,0.00001988,0.,0.00005521,0.00005531,
 -0.00000002,0.00007185,-0.00007421,-0.00000006,-0.00005520,-0.00000213
 ,0.,-0.00002081,-0.00001606,0.00000004,-0.00002474,-0.00000868,-0.0000
 0001,0.00003198,0.00000295,0.00000004,0.00004462,-0.00000733,0.,0.0000
 8238,0.00004825,0.00000002,-0.00006211,-0.00014775,-0.00000003,-0.0000
 9745,0.00004451,-0.00000004,-0.00002357,0.00003106,-0.00000001,-0.0000
 2363,-0.00008495,0.00000005,-0.00018716,-0.00030279,0.00000009,0.00009
 760,0.00024226,-0.00000018,0.00126170,0.00104140,0.00000224,0.18898483
 ,-0.18571790,0.00010609,-0.00006056,-0.00001534,0.00000002,-0.00010087
 ,0.00008474,0.00000007,0.00008433,0.00019346,0.00000005,0.00007250,0.0
 0001378,0.00000002,-0.00014783,0.00008610,-0.00000021,0.00007129,0.000
 36947,-0.00000002,0.00000152,-0.00000235,0.,-0.00000111,0.00000491,0.,
 -0.00000051,0.00000918,0.,-0.00000244,-0.00000397,0.,-0.00058897,0.001
 15579,-0.00000075,-0.22489197,0.22724188,0.00000061,-0.00000074,0.0013
 1392,-0.00000084,0.00000066,0.00178452,0.00000041,-0.00000087,-0.00013
 066,-0.00000039,0.00000088,-0.00061215,-0.00000158,-0.00000194,0.00084
 227,-0.00000262,0.00001146,-0.00239994,-0.00000010,-0.00000003,-0.0000
 0912,0.00000005,-0.00000008,-0.00001998,0.,0.00000002,-0.00000209,0.,-
 0.00000003,-0.00000519,-0.00000004,-0.00000003,0.00000121,-0.00000005,
 0.00000005,0.00000086,0.00000004,0.,-0.00000284,0.00000002,0.00000001,
 -0.00000018,0.00000003,0.00000002,0.00000152,-0.00000005,0.,-0.0000043
 5,-0.00000002,0.00000001,0.00000317,-0.00000008,-0.00000005,-0.0000019
 7,0.00000007,0.00000012,0.00000173,0.00000008,-0.00000003,0.00000333,0
 .00000001,-0.00000003,-0.00000606,0.00000003,0.00000009,0.00000104,0.0
 0000010,0.00000029,-0.00005440,-0.00000007,-0.00000023,0.00000801,0.00
 000502,-0.00000031,-0.00064956,-0.00016639,0.00012011,-0.00364346,0.00
 000005,0.00000001,-0.00000288,0.00000006,-0.00000005,-0.00000249,-0.00
 000007,-0.00000016,-0.00000256,-0.00000006,0.,-0.00000321,0.00000028,-
 0.00000017,-0.00056894,-0.00000009,-0.00000014,0.00014989,0.,0.,0.0000
 0287,0.,0.,0.00000193,0.,0.,0.00000079,0.,0.,0.00000197,0.00000041,-0.
 00000019,-0.00100527,0.00016515,-0.00012861,0.00499743,0.00004293,-0.0
 0000740,0.00000002,-0.00004405,0.00003202,-0.00000001,-0.00001239,-0.0
 0001912,0.,0.00000986,-0.00004725,0.00000002,-0.00004742,0.00007042,-0
 .00000004,0.00003316,0.00004746,0.,0.00006216,-0.00010634,-0.00000022,
 0.00023236,0.00011271,0.00000033,-0.00039631,-0.00029236,-0.00000039,0
 .00280816,0.00015771,-0.00000517,-0.01878312,-0.04778595,-0.00001590,-
 0.00656243,0.00135993,0.00000409,0.00029049,-0.00151370,0.00000007,0.0
 0049234,0.00030124,-0.00000009,-0.00015435,0.00006334,0.00000027,0.000
 15505,0.00003895,-0.00000040,-0.00006505,-0.00002371,0.00000009,0.0000
 3085,-0.00000790,0.00000002,0.00000040,-0.00005648,0.,-0.00007687,-0.0
 0004213,-0.00000004,0.00003587,0.00004800,0.,-0.00000383,0.00000936,0.
 00000002,-0.00001057,-0.00003285,-0.00000001,0.00001524,0.00003596,0.,
 0.00007640,-0.00007999,0.00000006,-0.00000551,-0.00005613,0.00000001,-
 0.05755913,-0.06043771,-0.00000697,0.00115891,0.00192381,0.00000025,0.
 00002131,0.00004373,0.,0.00011380,0.00002700,0.00000005,-0.00000231,0.
 00000600,0.,0.00000573,-0.00000327,0.,-0.00079112,0.00198000,0.0000045
 5,-0.00032426,0.00001196,0.,-0.00000166,-0.00000108,0.,0.00000545,-0.0
 0000076,0.,-0.00001505,-0.00000133,0.,-0.00000260,0.00000921,0.,0.0793
 0019,0.00003810,-0.00001379,0.00000002,-0.00002534,0.00002009,0.,0.000
 00073,-0.00001830,0.,-0.00000475,-0.00001814,0.,-0.00004052,0.00003282
 ,-0.00000002,0.00002812,0.00004355,0.,0.00006038,-0.00011947,-0.000000
 08,0.00011760,0.00017664,-0.00000003,0.00024658,-0.00030419,0.00000015
 ,0.00673804,0.00230703,-0.00000514,-0.00432077,-0.00537901,0.00000168,
 0.00369511,0.00173343,-0.00000232,-0.00150550,-0.00004416,0.00000019,0
 .00123877,-0.00056224,-0.00000073,-0.00040237,-0.00016812,0.00000057,0
 .00029807,0.00009051,-0.00000099,-0.00011554,-0.00002685,0.00000028,0.
 00003611,-0.00003183,0.00000003,0.00002789,-0.00010027,0.00000001,-0.0
 0015131,-0.00008605,-0.00000007,0.00007011,0.00009811,0.,-0.00000357,0
 .00005020,0.00000004,-0.00000637,-0.00002038,-0.00000003,0.00000587,0.
 00003833,0.00000002,0.00004304,-0.00004854,0.00000003,-0.00001190,-0.0
 0006015,0.00000001,-0.11151544,-0.50604660,-0.00019530,-0.00147911,0.0
 0094940,0.00000090,0.00002682,0.00005793,0.00000001,0.00023566,0.00005
 545,0.00000011,0.00000022,-0.00000152,0.,0.00000316,-0.00000139,0.,-0.
 00039698,-0.00061699,-0.00000249,0.00000489,0.00011265,0.00000021,-0.0
 0000282,-0.00000217,0.,0.00001144,-0.00000162,0.,-0.00000796,0.0000002
 9,0.,-0.00000149,0.00000610,0.,0.10703499,0.50762029,0.,0.,-0.00000442
 ,-0.00000002,0.,0.00000828,0.,0.,-0.00000087,0.,0.,-0.00000186,-0.0000
 0001,0.,0.00000199,0.,0.,0.00000112,0.00000001,0.00000001,-0.00000739,
 0.00000007,0.00000002,-0.00000972,-0.00000016,-0.00000036,-0.00052691,
 -0.00000580,-0.00000102,-0.00085090,0.00000679,0.00002231,-0.00213983,
 0.00000509,-0.00000079,0.00202816,0.00000073,0.00000061,0.00114916,-0.
 00000009,0.00000008,0.00018700,-0.00000002,-0.00000005,-0.00002871,0.,
 0.,-0.00000466,0.,0.,0.00000259,0.,0.,-0.00000253,0.,-0.00000001,0.000
 00096,-0.00000001,0.,0.00000094,0.,0.,-0.00000299,0.,0.,0.00000019,0.,
 0.,-0.00000213,0.,-0.00000001,-0.00000062,0.00000001,-0.00000001,-0.00
 000359,0.,0.,-0.00000597,-0.00003137,-0.00022175,-0.00264425,0.0000002
 6,-0.00000036,0.00029376,0.,0.,-0.00000287,0.00000001,0.,-0.00000245,0
 .,0.,0.00000670,0.,0.,0.00000158,0.00000416,-0.00000267,0.00010801,0.0
 0000007,0.00000017,-0.00037938,0.,0.,0.00000233,0.,0.,0.00000162,0.,0.
 ,0.00000277,0.,0.,0.00000352,0.00002084,0.00020255,0.00380253,0.000062
 68,-0.00000081,0.00000004,-0.00010351,0.00011191,-0.00000013,-0.000030
 35,-0.00004324,0.00000002,0.00000554,-0.00013637,0.00000004,-0.0000972
 6,0.00018042,-0.00000009,0.00009027,0.00009185,0.00000002,0.00025692,-
 0.00029398,-0.00000066,-0.00034246,0.00040791,0.00000120,0.00153524,-0
 .00008045,-0.00000079,-0.00243869,-0.00021361,0.00000038,0.00273471,-0
 .00415724,-0.00000208,-0.03881375,-0.00384762,0.00001211,0.00105807,0.
 00343117,0.00000105,-0.00082692,-0.00085433,0.00000069,-0.00018756,0.0
 0006756,0.00000023,0.00009349,0.00004166,-0.00000029,-0.00003111,-0.00
 001761,0.00000007,0.00002901,-0.00001112,0.00000001,0.00000353,-0.0000
 7353,0.,-0.00008477,-0.00001782,-0.00000004,0.00001905,0.00003373,0.,0
 .00000500,0.00002243,0.00000003,-0.00002065,-0.00004672,0.,0.00001006,
 0.00003212,-0.00000003,0.00019244,-0.00020591,0.00000014,-0.00001401,-
 0.00008754,0.00000002,-0.00011990,-0.00025836,0.00000566,-0.42005436,-
 0.15646870,0.00011339,0.00003099,0.00006439,0.00000001,0.00011049,0.00
 002397,0.00000005,-0.00000322,0.00000415,0.,0.00001218,-0.00000515,0.,
 0.00030859,-0.00026310,-0.00000012,0.00018198,0.00010445,-0.00000026,-
 0.00000314,-0.00000160,0.,0.00000484,-0.00000116,0.,-0.00003674,-0.000
 00488,-0.00000002,-0.00000036,0.00001819,-0.00000001,-0.00001317,0.000
 06312,-0.00000059,0.45650091,0.00000603,0.00000217,0.,-0.00002151,0.00
 003473,-0.00000005,-0.00000987,0.00000458,0.,0.00000117,-0.00004526,0.
 00000001,-0.00000447,0.00004587,-0.00000002,0.00001381,0.00001070,0.,0
 .00007366,-0.00005440,-0.00000020,-0.00021100,0.00003660,0.00000040,0.
 00031584,-0.00038246,-0.00000010,-0.00097352,0.00074179,0.00000092,0.0
 0878490,-0.00217273,-0.00000467,0.03442126,0.01179999,-0.00000786,0.00
 433676,-0.00458287,-0.00000408,0.00001529,0.00119785,-0.00000048,0.000
 36593,-0.00020606,-0.00000043,-0.00006069,0.00000078,0.00000039,0.0000
 2852,0.00002390,-0.00000011,0.00000473,0.00001169,0.,-0.00001330,0.000
 03116,0.,0.00004418,0.00003100,0.00000002,-0.00002142,-0.00003678,0.,0
 .00000488,-0.00001680,-0.00000002,-0.00000481,-0.00001414,0.00000002,0
 .00000182,-0.00000037,-0.00000002,0.00003732,-0.00004376,0.00000003,-0
 .00000288,-0.00000148,0.,-0.00063962,0.00440558,0.00000283,-0.20601840
 ,-0.12969572,0.00003592,-0.00000179,-0.00001068,0.,-0.00007371,-0.0000
 1871,-0.00000004,0.00000034,-0.00000170,0.,0.00000206,-0.00000071,0.,-
 0.00002185,0.00004447,-0.00000005,0.00003022,0.00002466,0.00000023,0.0
 0000012,-0.00000024,0.,-0.00000233,0.00000090,0.,-0.00000645,-0.000001
 20,0.,0.00000295,0.00000166,0.,-0.00280166,0.00027012,0.00000123,0.162
 38968,0.11856773,-0.00000003,0.,-0.00000604,0.00000004,-0.00000004,0.0
 0000080,0.00000001,0.00000004,0.00000335,0.,0.00000005,-0.00000236,0.0
 0000005,-0.00000008,0.00000150,-0.00000005,-0.00000004,0.00000374,-0.0
 0000015,0.00000014,0.00000785,0.00000014,-0.00000019,-0.00005579,-0.00
 000068,0.00000008,-0.00013233,0.00000042,0.00000044,-0.00059965,0.0000
 0282,0.00000054,0.00081282,0.00003198,0.00000604,-0.00248409,0.0000013
 6,-0.00000354,0.00132359,0.00000132,-0.00000013,0.00179956,0.00000018,
 -0.00000004,-0.00001144,-0.00000010,0.,-0.00002028,0.00000004,0.,-0.00
 000168,-0.00000001,0.00000001,-0.00000518,-0.00000001,0.00000005,0.000
 00148,0.00000006,0.00000002,0.00000079,-0.00000001,-0.00000003,-0.0000
 0311,-0.00000001,-0.00000003,-0.00000018,0.00000001,0.,-0.00000501,0.,
 -0.00000001,0.00000112,-0.00000009,0.00000010,-0.00000267,0.,0.0000000
 4,-0.00000308,0.00000179,0.00000217,-0.00022153,0.00009285,0.00001774,
 -0.00368108,-0.00000002,-0.00000004,-0.00000302,-0.00000009,-0.0000000
 2,-0.00000274,0.,0.,0.00000202,0.,0.,0.00000083,-0.00000004,0.00000004
 ,0.00014987,-0.00000033,0.00000016,-0.00057532,0.,0.,0.00000309,0.,0.,
 0.00000200,0.00000002,0.,0.00000206,0.,0.,0.00000226,-0.00000144,0.000
 00042,-0.00098517,-0.00013003,-0.00002390,0.00467823,-0.00006809,0.000
 13516,-0.00000004,-0.00005496,0.00001154,-0.00000004,-0.00003185,-0.00
 012779,-0.00000003,0.00004563,0.00001084,0.,0.00014279,-0.00001796,0.0
 0000006,-0.00002430,-0.00022280,0.00000005,-0.00003691,0.00003439,-0.0
 0000010,0.00001818,-0.00002338,0.00000013,0.00001232,-0.00000931,-0.00
 000005,0.00001511,-0.00001045,0.,-0.00005632,-0.00002375,0.00000002,-0
 .00002716,0.00004847,0.00000002,0.00002349,0.00001765,0.,-0.00001793,-
 0.00000366,-0.00000002,0.00007349,-0.00000705,0.00000005,-0.00001981,0
 .00002818,-0.00000001,-0.00075741,-0.00010193,-0.00000104,0.00303000,0
 .00033154,0.00000095,-0.01645678,-0.01032265,-0.00000536,0.00340127,0.
 00718882,0.00000113,-0.00227840,-0.00127990,-0.00000090,0.00125407,0.0
 0087872,0.00000079,0.00009849,0.00035707,0.00000026,-0.00017890,-0.000
 50495,-0.00000027,-0.00006468,0.00005878,-0.00000005,0.00004866,0.0002
 9259,-0.00000006,0.00007122,0.00001796,-0.00000003,0.00004983,-0.00003
 694,-0.00000003,-0.50842349,-0.02902113,-0.00018073,0.00052721,-0.0005
 9773,0.00000352,0.00000861,0.00000983,0.,-0.00000180,-0.00000410,0.,0.
 00000333,0.00000234,0.,-0.00000401,-0.00000011,0.,0.00020325,-0.000009
 56,0.00000033,0.00014780,0.00031611,0.,0.00001668,-0.00000608,0.000000
 01,0.00002751,-0.00002760,0.00000002,-0.00000672,-0.00000853,0.,-0.000
 01065,0.00000074,0.,0.52027945,-0.00000820,0.00001497,0.,-0.00001424,0
 .00001553,-0.00000001,-0.00001296,-0.00001894,0.,0.00001456,0.00000597
 ,0.,0.00003561,-0.00000811,0.00000002,-0.00001867,-0.00004574,0.,-0.00
 000503,0.00000492,0.,0.00000545,-0.00001138,-0.00000002,0.00000823,-0.
 00002181,0.,0.00004270,-0.00002864,-0.00000002,-0.00007656,-0.00000118
 ,0.00000004,-0.00001301,0.00005467,0.00000003,-0.00000118,0.00001534,0
 .,-0.00004354,0.00000993,0.00000002,0.00008223,0.00002537,0.00000022,-
 0.00025965,-0.00037992,-0.00000043,-0.00100189,0.00112001,-0.00000055,
 -0.00058729,-0.00662329,-0.00000047,-0.04860282,-0.01011256,-0.0000184
 1,-0.00579929,-0.00334975,-0.00000242,-0.00050900,0.00058239,-0.000000
 11,0.00047305,-0.00011617,0.00000030,0.00000258,0.00007802,0.00000004,
 0.00010109,-0.00009834,0.00000003,-0.00002181,0.00002417,-0.00000002,0
 .00001154,0.00006038,-0.00000001,0.00010382,0.00002281,-0.00000005,0.0
 0002632,-0.00002420,-0.00000002,0.02054315,-0.04389801,0.00001050,0.00
 007855,0.00061006,-0.00000373,0.00000214,0.00000263,0.,0.00000050,-0.0
 0000311,0.,0.00000320,0.00000285,0.,-0.00000147,-0.00000062,0.,0.00006
 098,0.00000951,0.00000009,0.00007169,0.00020580,0.00000006,0.00000485,
 -0.00000081,0.,0.00000463,-0.00000708,0.,-0.00000623,-0.00001193,0.,-0
 .00000674,0.00000445,0.,0.03328867,0.06067127,-0.00000003,0.00000006,-
 0.00000202,-0.00000001,0.,0.00000318,-0.00000002,-0.00000006,0.0000009
 6,0.00000002,0.00000001,-0.00000674,0.00000005,-0.00000001,0.00000311,
 0.,-0.00000009,0.00000173,-0.00000002,0.00000002,-0.00000600,0.,-0.000
 00001,0.00000285,0.,0.,-0.00000041,0.,0.,-0.00000314,-0.00000003,-0.00
 000001,0.00000082,-0.00000001,0.00000003,0.00000153,0.00000002,0.00000
 001,-0.00000485,-0.00000002,0.,-0.00000166,0.00000012,0.00000005,-0.00
 002134,-0.00000013,0.,-0.00000841,-0.00000122,-0.00000010,0.00178698,0
 .00000065,-0.00000032,0.00131019,-0.00000748,-0.00000422,-0.00245259,0
 .00000052,0.00000267,0.00081302,-0.00000060,-0.00000059,-0.00061169,0.
 00000068,0.00000043,-0.00013097,0.00000004,0.00000015,0.00000886,-0.00
 000004,-0.00000021,-0.00005591,-0.00000003,0.00000003,-0.00000273,0.00
 000002,0.00000012,-0.00000269,0.00000004,0.,-0.00000271,0.00000003,-0.
 00000002,-0.00000314,-0.00017808,-0.00000752,-0.00521767,0.00000452,-0
 .00000531,-0.00040929,0.,0.,0.00000082,0.,0.,0.00000203,0.,0.,0.000001
 98,0.,0.,0.00000302,0.00000035,0.00000001,-0.00056729,-0.00000002,0.00
 000010,0.00015115,0.,0.,0.00000328,0.00000001,-0.00000001,0.00000203,0
 .,0.,0.00000213,0.,0.,0.00000276,0.00018076,0.00001514,0.00637861,-0.0
 0002185,0.00005017,-0.00000002,-0.00002298,0.00001284,0.,-0.00002710,-
 0.00004648,-0.00000001,0.00003931,0.00003084,0.,0.00007068,-0.00002658
 ,0.00000004,-0.00002508,-0.00010263,0.00000002,-0.00002582,0.00003192,
 0.,0.00003344,-0.00003933,-0.00000005,0.00000883,-0.00003048,0.,0.0000
 9745,-0.00004974,-0.00000004,-0.00015671,0.00000817,0.00000008,-0.0000
 3147,0.00009127,0.00000006,0.00002897,0.00003871,-0.00000002,-0.000112
 55,-0.00002033,0.00000006,0.00027683,0.00005451,0.00000037,-0.00029212
 ,-0.00011977,-0.00000058,0.00088189,0.00044483,0.00000045,-0.00100320,
 0.00102383,-0.00000102,-0.00282914,-0.00369885,-0.00000179,-0.03778788
 ,0.03211489,-0.00000925,0.00652740,0.00319779,0.00000646,-0.00038796,0
 .00029356,-0.00000025,0.00000626,0.00016491,0.00000008,0.00032093,-0.0
 0003695,0.00000010,-0.00005407,0.00005718,-0.00000004,0.00002091,0.000
 12902,-0.00000003,0.00020704,0.00004627,-0.00000009,0.00005615,-0.0000
 4412,-0.00000004,0.00128937,-0.00175798,0.00000037,-0.21469202,0.20485
 483,-0.00002669,0.00000418,0.00000593,0.,0.00000011,-0.00000477,0.,0.0
 0000899,0.00000590,0.,-0.00000391,0.,0.,-0.00022767,-0.00018133,0.0000
 0006,0.00004550,-0.00131483,0.00000123,0.00001449,-0.00000344,0.,0.000
 01181,-0.00001400,0.00000001,-0.00001274,-0.00002456,0.,-0.00001339,0.
 00000707,0.,-0.00097818,0.00202403,-0.00000010,0.24875530,0.00000826,0
 .00000189,0.,-0.00000056,-0.00000973,0.,0.00000395,0.00000889,0.000000
 01,-0.00001173,-0.00001826,0.,-0.00002238,0.00001315,-0.00000001,0.000
 01579,0.00001776,0.,0.00000476,-0.00000789,-0.00000005,-0.00000976,0.0
 0002076,0.00000009,-0.00001630,0.00003878,0.,-0.00007893,0.00004147,0.
 00000004,0.00012757,-0.00000704,-0.00000007,0.00001055,-0.00007557,-0.
 00000005,-0.00000789,-0.00003327,0.00000002,0.00007898,0.00002216,-0.0
 0000005,-0.00022072,-0.00003487,-0.00000034,0.00034452,-0.00001886,0.0
 0000056,-0.00055709,-0.00097581,-0.00000023,0.00102676,0.00124497,0.00
 000011,-0.00604155,-0.00203317,-0.00000320,-0.01094198,0.01238742,-0.0
 0000164,-0.00391843,0.00325047,0.00000458,-0.00028366,-0.00020150,-0.0
 0000007,-0.00000106,-0.00007630,0.,-0.00005317,0.00010363,-0.00000009,
 0.00002700,-0.00002511,0.00000001,-0.00000234,-0.00002420,0.,-0.000173
 16,-0.00003940,0.00000008,-0.00003259,0.00002655,0.00000002,0.00164742
 ,0.00087331,0.00000079,0.25606374,-0.34871428,0.00001259,-0.00000071,-
 0.00000050,0.,0.00000191,-0.00000286,0.,-0.00000720,-0.00000499,0.,0.0
 0000293,-0.00000019,0.,-0.00017941,0.00001875,-0.00000002,0.00102273,-
 0.00059951,0.00000188,-0.00000733,0.00000049,0.,-0.00000296,0.00000248
 ,0.,0.00000955,0.00002076,0.,0.00000886,-0.00000634,0.,-0.00066206,0.0
 0122053,-0.00000029,-0.23717231,0.33359539,0.,-0.00000002,-0.00000133,
 0.,0.,-0.00000129,0.,0.,0.00000865,0.,0.00000001,-0.00000501,0.,0.,0.0
 0000020,0.,0.00000002,0.00000231,0.,0.,-0.00000319,0.,-0.00000001,0.00
 000150,0.,-0.00000003,-0.00000013,0.00000005,-0.00000002,-0.00000294,-
 0.00000006,0.,0.00000091,0.,0.00000004,0.00000093,0.,0.00000002,-0.000
 00215,-0.00000004,0.,0.00000279,0.00000011,0.00000002,-0.00000556,-0.0
 0000022,-0.00000004,-0.00002743,0.00000032,0.00000108,0.00018517,-0.00
 000219,0.00000024,0.00113953,-0.00000200,-0.00000175,0.00204005,-0.000
 01891,0.00001332,-0.00209411,0.00000097,0.00000781,-0.00051940,0.00000
 060,-0.00000011,-0.00051794,0.,0.,-0.00000606,0.00000005,-0.00000002,-
 0.00001220,-0.00000001,0.,-0.00000553,0.,-0.00000002,-0.00000369,0.000
 00009,0.00000002,-0.00000230,0.,0.,-0.00000283,-0.00000088,-0.00000063
 ,0.00030468,-0.00001170,-0.00000634,-0.00356797,0.,0.,0.00000149,0.,0.
 ,0.00000622,0.,0.,0.00000153,0.,0.,0.00000217,-0.00000007,-0.00000010,
 -0.00037951,0.00000264,0.00000140,-0.00041540,0.,0.,0.00000614,0.,0.,0
 .00000300,0.,-0.00000001,0.00000188,0.,0.,0.00000203,0.00000062,-0.000
 00024,-0.00096978,0.00003064,-0.00001466,0.00483457\\0.00010347,0.0000
 6731,0.00000053,-0.00001176,0.00006458,-0.00002178,-0.00000947,0.00003
 570,-0.00000342,-0.00029620,0.00021219,0.00000048,-0.00017949,-0.00033
 631,0.00000046,0.00002484,0.00029947,0.00000137,-0.00008299,0.00004382
 ,-0.00001018,0.00014833,-0.00006227,0.00007531,-0.00012548,-0.00013655
 ,-0.00004953,0.00029231,0.00019717,0.00000081,-0.00034466,0.00010017,0
 .00000365,0.00012316,-0.00013658,0.00000026,0.00004811,-0.00011006,0.0
 0000557,0.00010746,0.00005102,-0.00001751,0.00008452,-0.00000224,-0.00
 000655,-0.00012102,0.00006736,0.00004954,-0.00008260,-0.00004509,-0.00
 003187,-0.00000010,-0.00006297,-0.00000247,-0.00019056,-0.00015137,0.0
 0000257,0.00018646,0.00011270,0.00000142,-0.00031804,-0.00000782,0.000
 00055,0.00013825,-0.00000527,-0.00000230,0.00007421,0.00016262,0.00000
 436,-0.00007200,-0.00016403,0.00000242,0.00034106,0.00007371,-0.000001
 69,0.00018370,-0.00030864,-0.00000077,0.00003404,-0.00029146,-0.000001
 53,-0.00028761,0.00000690,-0.00000094,0.00023882,0.00020253,0.00000015
 ,0.00012073,-0.00026840,-0.00000244,0.00005452,-0.00001454,-0.00000036
 ,0.00006309,0.00002537,-0.00000025,0.00001005,-0.00004971,-0.00000126,
 -0.00004786,-0.00003346,0.00000037,0.00004006,-0.00001986,-0.00000076,
 0.00002384,-0.00001443,0.00000085,-0.00017357,-0.00012958,0.00000140,-
 0.00012662,0.00008040,0.00000144,0.00011202,0.00025693,0.00000055,0.00
 016257,0.00007794,0.00000065,-0.00012874,-0.00002032,0.00000028,-0.000
 11685,0.00023309,0.00000062\\\@


 HICKORY, DICKORY, DOCK
 TWO MICE RAN UP THE CLOCK
 THE CLOCK STRUCK ONE...
 THE OTHER ESCAPED WITH MINOR INJURIES.
 Job cpu time:       0 days  4 hours 10 minutes 19.7 seconds.
 Elapsed time:       0 days  0 hours  8 minutes 58.9 seconds.
 File lengths (MBytes):  RWF=   1441 Int=      0 D2E=      0 Chk=     66 Scr=      2
 Normal termination of Gaussian 16 at Fri Jan 14 16:30:41 2022.
