 Entering Gaussian System, Link 0=g16
 Input=hhtp.gjf
 Output=hhtp.log
 Initial command:
 /curc/sw/gaussian/16/g16/l1.exe "/rc_scratch/xuwa0145/Gau-65335.inp" -scrdir="/rc_scratch/xuwa0145/"
 Entering Link 1 = /curc/sw/gaussian/16/g16/l1.exe PID=     65336.
  
 Copyright (c) 1988,1990,1992,1993,1995,1998,2003,2009,2016,
            Gaussian, Inc.  All Rights Reserved.
  
 This is part of the Gaussian(R) 16 program.  It is based on
 the Gaussian(R) 09 system (copyright 2009, Gaussian, Inc.),
 the Gaussian(R) 03 system (copyright 2003, Gaussian, Inc.),
 the Gaussian(R) 98 system (copyright 1998, Gaussian, Inc.),
 the Gaussian(R) 94 system (copyright 1995, Gaussian, Inc.),
 the Gaussian 92(TM) system (copyright 1992, Gaussian, Inc.),
 the Gaussian 90(TM) system (copyright 1990, Gaussian, Inc.),
 the Gaussian 88(TM) system (copyright 1988, Gaussian, Inc.),
 the Gaussian 86(TM) system (copyright 1986, Carnegie Mellon
 University), and the Gaussian 82(TM) system (copyright 1983,
 Carnegie Mellon University). Gaussian is a federally registered
 trademark of Gaussian, Inc.
  
 This software contains proprietary and confidential information,
 including trade secrets, belonging to Gaussian, Inc.
  
 This software is provided under written license and may be
 used, copied, transmitted, or stored only in accord with that
 written license.
  
 The following legend is applicable only to US Government
 contracts under FAR:
  
                    RESTRICTED RIGHTS LEGEND
  
 Use, reproduction and disclosure by the US Government is
 subject to restrictions as set forth in subparagraphs (a)
 and (c) of the Commercial Computer Software - Restricted
 Rights clause in FAR 52.227-19.
  
 Gaussian, Inc.
 340 Quinnipiac St., Bldg. 40, Wallingford CT 06492
  
  
 ---------------------------------------------------------------
 Warning -- This program may not be used in any manner that
 competes with the business of Gaussian, Inc. or will provide
 assistance to any competitor of Gaussian, Inc.  The licensee
 of this program is prohibited from giving any competitor of
 Gaussian, Inc. access to this program.  By using this program,
 the user acknowledges that Gaussian, Inc. is engaged in the
 business of creating and licensing software in the field of
 computational chemistry and represents and warrants to the
 licensee that it is not a competitor of Gaussian, Inc. and that
 it will not use this program in any manner prohibited above.
 ---------------------------------------------------------------
  

 Cite this work as:
 Gaussian 16, Revision A.03,
 M. J. Frisch, G. W. Trucks, H. B. Schlegel, G. E. Scuseria, 
 M. A. Robb, J. R. Cheeseman, G. Scalmani, V. Barone, 
 G. A. Petersson, H. Nakatsuji, X. Li, M. Caricato, A. V. Marenich, 
 J. Bloino, B. G. Janesko, R. Gomperts, B. Mennucci, H. P. Hratchian, 
 J. V. Ortiz, A. F. Izmaylov, J. L. Sonnenberg, D. Williams-Young, 
 F. Ding, F. Lipparini, F. Egidi, J. Goings, B. Peng, A. Petrone, 
 T. Henderson, D. Ranasinghe, V. G. Zakrzewski, J. Gao, N. Rega, 
 G. Zheng, W. Liang, M. Hada, M. Ehara, K. Toyota, R. Fukuda, 
 J. Hasegawa, M. Ishida, T. Nakajima, Y. Honda, O. Kitao, H. Nakai, 
 T. Vreven, K. Throssell, J. A. Montgomery, Jr., J. E. Peralta, 
 F. Ogliaro, M. J. Bearpark, J. J. Heyd, E. N. Brothers, K. N. Kudin, 
 V. N. Staroverov, T. A. Keith, R. Kobayashi, J. Normand, 
 K. Raghavachari, A. P. Rendell, J. C. Burant, S. S. Iyengar, 
 J. Tomasi, M. Cossi, J. M. Millam, M. Klene, C. Adamo, R. Cammi, 
 J. W. Ochterski, R. L. Martin, K. Morokuma, O. Farkas, 
 J. B. Foresman, and D. J. Fox, Gaussian, Inc., Wallingford CT, 2016.
 
 ******************************************
 Gaussian 16:  ES64L-G16RevA.03 25-Dec-2016
                 7-Jan-2022 
 ******************************************
 %chk=ketone.chk
 %mem=10gb
 %nprocshared=28
 Will use up to   28 processors via shared memory.
 --------------------------------
 #opt freq wb97xd def2svp scf=xqc
 --------------------------------
 1/18=20,19=15,26=3,38=1/1,3;
 2/9=110,12=2,17=6,18=5,40=1/2;
 3/5=43,7=101,11=2,25=1,30=1,71=1,74=-58/1,2,3;
 4//1;
 5/5=2,8=3,13=1,38=5/2,8;
 6/7=2,8=2,9=2,10=2,28=1/1;
 7//1,2,3,16;
 1/18=20,19=15,26=3/3(2);
 2/9=110/2;
 99//99;
 2/9=110/2;
 3/5=43,7=101,11=2,25=1,30=1,71=1,74=-58/1,2,3;
 4/5=5,16=3,69=1/1;
 5/5=2,8=3,13=1,38=5/2,8;
 7//1,2,3,16;
 1/18=20,19=15,26=3/3(-5);
 2/9=110/2;
 6/7=2,8=2,9=2,10=2,19=2,28=1/1;
 99/9=1/99;
 ----------
 [No Title]
 ----------
 Symbolic Z-matrix:
 Charge =  0 Multiplicity = 1
 C                     20.38639  -13.52111   0.12748 
 C                     20.40411  -14.91113   0.11955 
 C                     21.61555  -15.65339   0.11864 
 C                     22.85933  -14.94379   0.12621 
 C                     22.82239  -13.52128   0.13425 
 C                     21.62441  -12.81989   0.13493 
 C                     21.61399  -17.11689   0.11012 
 C                     22.84866  -17.83517   0.10886 
 C                     24.12042  -17.11121   0.11676 
 C                     24.12322  -15.67931   0.12557 
 C                     20.40393  -17.86201   0.10293 
 C                     20.37197  -19.25386   0.09467 
 C                     21.60546  -19.97146   0.09302 
 C                     22.79928  -19.25531   0.10009 
 C                     25.36372  -17.79866   0.11617 
 C                     26.58102  -17.12753   0.12406 
 C                     26.57969  -15.70472   0.13309 
 C                     25.37844  -15.00886   0.13368 
 O                     21.5043  -11.45158   0.14239 
 O                     19.21615  -12.82906   0.12816 
 O                     19.22838  -19.99086   0.08796 
 O                     21.53061  -21.32995   0.0846 
 O                     27.76037  -17.80391   0.12338 
 O                     27.82902  -15.13381   0.14082 
 H                     19.42766  -15.41247   0.11389 
 H                     23.75728  -12.94025   0.14009 
 H                     19.43641  -17.33727   0.10387 
 H                     23.73383  -19.83671   0.09874 
 H                     25.40984  -18.89532   0.10949 
 H                     25.42214  -13.90898   0.14084 
 H                     22.39    -11.04649   0.14707 
 H                     19.45478  -11.87926   0.13421 
 H                     18.47274  -19.37426   0.09007 
 H                     22.44034  -21.68151   0.08445 
 H                     28.46872  -17.12769   0.12972 
 H                     27.74413  -14.16356   0.14587 
 

 GradGradGradGradGradGradGradGradGradGradGradGradGradGradGradGradGradGrad
 Berny optimization.
 Initialization pass.
                           ----------------------------
                           !    Initial Parameters    !
                           ! (Angstroms and Degrees)  !
 --------------------------                            --------------------------
 ! Name  Definition              Value          Derivative Info.                !
 --------------------------------------------------------------------------------
 ! R1    R(1,2)                  1.3902         estimate D2E/DX2                !
 ! R2    R(1,6)                  1.4228         estimate D2E/DX2                !
 ! R3    R(1,20)                 1.3596         estimate D2E/DX2                !
 ! R4    R(2,3)                  1.4208         estimate D2E/DX2                !
 ! R5    R(2,25)                 1.0976         estimate D2E/DX2                !
 ! R6    R(3,4)                  1.432          estimate D2E/DX2                !
 ! R7    R(3,7)                  1.4635         estimate D2E/DX2                !
 ! R8    R(4,5)                  1.423          estimate D2E/DX2                !
 ! R9    R(4,10)                 1.4623         estimate D2E/DX2                !
 ! R10   R(5,6)                  1.3882         estimate D2E/DX2                !
 ! R11   R(5,26)                 1.1008         estimate D2E/DX2                !
 ! R12   R(6,19)                 1.3736         estimate D2E/DX2                !
 ! R13   R(7,8)                  1.4284         estimate D2E/DX2                !
 ! R14   R(7,11)                 1.4211         estimate D2E/DX2                !
 ! R15   R(8,9)                  1.4634         estimate D2E/DX2                !
 ! R16   R(8,14)                 1.421          estimate D2E/DX2                !
 ! R17   R(9,10)                 1.4319         estimate D2E/DX2                !
 ! R18   R(9,15)                 1.4207         estimate D2E/DX2                !
 ! R19   R(10,18)                1.4231         estimate D2E/DX2                !
 ! R20   R(11,12)                1.3922         estimate D2E/DX2                !
 ! R21   R(11,27)                1.1007         estimate D2E/DX2                !
 ! R22   R(12,13)                1.427          estimate D2E/DX2                !
 ! R23   R(12,21)                1.3605         estimate D2E/DX2                !
 ! R24   R(13,14)                1.3922         estimate D2E/DX2                !
 ! R25   R(13,22)                1.3606         estimate D2E/DX2                !
 ! R26   R(14,28)                1.1006         estimate D2E/DX2                !
 ! R27   R(15,16)                1.3901         estimate D2E/DX2                !
 ! R28   R(15,29)                1.0977         estimate D2E/DX2                !
 ! R29   R(16,17)                1.4228         estimate D2E/DX2                !
 ! R30   R(16,23)                1.3595         estimate D2E/DX2                !
 ! R31   R(17,18)                1.3882         estimate D2E/DX2                !
 ! R32   R(17,24)                1.3736         estimate D2E/DX2                !
 ! R33   R(18,30)                1.1008         estimate D2E/DX2                !
 ! R34   R(19,31)                0.974          estimate D2E/DX2                !
 ! R35   R(20,32)                0.9793         estimate D2E/DX2                !
 ! R36   R(21,33)                0.9753         estimate D2E/DX2                !
 ! R37   R(22,34)                0.9753         estimate D2E/DX2                !
 ! R38   R(23,35)                0.9793         estimate D2E/DX2                !
 ! R39   R(24,36)                0.974          estimate D2E/DX2                !
 ! A1    A(2,1,6)              118.7982         estimate D2E/DX2                !
 ! A2    A(2,1,20)             121.3292         estimate D2E/DX2                !
 ! A3    A(6,1,20)             119.8726         estimate D2E/DX2                !
 ! A4    A(1,2,3)              122.2263         estimate D2E/DX2                !
 ! A5    A(1,2,25)             116.448          estimate D2E/DX2                !
 ! A6    A(3,2,25)             121.3258         estimate D2E/DX2                !
 ! A7    A(2,3,4)              118.7971         estimate D2E/DX2                !
 ! A8    A(2,3,7)              121.4349         estimate D2E/DX2                !
 ! A9    A(4,3,7)              119.768          estimate D2E/DX2                !
 ! A10   A(3,4,5)              118.2197         estimate D2E/DX2                !
 ! A11   A(3,4,10)             120.096          estimate D2E/DX2                !
 ! A12   A(5,4,10)             121.6843         estimate D2E/DX2                !
 ! A13   A(4,5,6)              121.8349         estimate D2E/DX2                !
 ! A14   A(4,5,26)             120.3746         estimate D2E/DX2                !
 ! A15   A(6,5,26)             117.7905         estimate D2E/DX2                !
 ! A16   A(1,6,5)              120.1238         estimate D2E/DX2                !
 ! A17   A(1,6,19)             114.5119         estimate D2E/DX2                !
 ! A18   A(5,6,19)             125.3642         estimate D2E/DX2                !
 ! A19   A(3,7,8)              120.1281         estimate D2E/DX2                !
 ! A20   A(3,7,11)             121.6855         estimate D2E/DX2                !
 ! A21   A(8,7,11)             118.1864         estimate D2E/DX2                !
 ! A22   A(7,8,9)              120.1589         estimate D2E/DX2                !
 ! A23   A(7,8,14)             118.1976         estimate D2E/DX2                !
 ! A24   A(9,8,14)             121.6435         estimate D2E/DX2                !
 ! A25   A(8,9,10)             119.764          estimate D2E/DX2                !
 ! A26   A(8,9,15)             121.4091         estimate D2E/DX2                !
 ! A27   A(10,9,15)            118.8269         estimate D2E/DX2                !
 ! A28   A(4,10,9)             120.085          estimate D2E/DX2                !
 ! A29   A(4,10,18)            121.6936         estimate D2E/DX2                !
 ! A30   A(9,10,18)            118.2214         estimate D2E/DX2                !
 ! A31   A(7,11,12)            122.94           estimate D2E/DX2                !
 ! A32   A(7,11,27)            119.9024         estimate D2E/DX2                !
 ! A33   A(12,11,27)           117.1576         estimate D2E/DX2                !
 ! A34   A(11,12,13)           118.8735         estimate D2E/DX2                !
 ! A35   A(11,12,21)           124.1167         estimate D2E/DX2                !
 ! A36   A(13,12,21)           117.0098         estimate D2E/DX2                !
 ! A37   A(12,13,14)           118.8514         estimate D2E/DX2                !
 ! A38   A(12,13,22)           117.0353         estimate D2E/DX2                !
 ! A39   A(14,13,22)           124.1133         estimate D2E/DX2                !
 ! A40   A(8,14,13)            122.9511         estimate D2E/DX2                !
 ! A41   A(8,14,28)            119.8946         estimate D2E/DX2                !
 ! A42   A(13,14,28)           117.1544         estimate D2E/DX2                !
 ! A43   A(9,15,16)            122.1911         estimate D2E/DX2                !
 ! A44   A(9,15,29)            121.347          estimate D2E/DX2                !
 ! A45   A(16,15,29)           116.4618         estimate D2E/DX2                !
 ! A46   A(15,16,17)           118.8163         estimate D2E/DX2                !
 ! A47   A(15,16,23)           121.2951         estimate D2E/DX2                !
 ! A48   A(17,16,23)           119.8886         estimate D2E/DX2                !
 ! A49   A(16,17,18)           120.1363         estimate D2E/DX2                !
 ! A50   A(16,17,24)           114.5065         estimate D2E/DX2                !
 ! A51   A(18,17,24)           125.3572         estimate D2E/DX2                !
 ! A52   A(10,18,17)           121.808          estimate D2E/DX2                !
 ! A53   A(10,18,30)           120.3847         estimate D2E/DX2                !
 ! A54   A(17,18,30)           117.8072         estimate D2E/DX2                !
 ! A55   A(6,19,31)            109.5625         estimate D2E/DX2                !
 ! A56   A(1,20,32)            106.4962         estimate D2E/DX2                !
 ! A57   A(12,21,33)           107.9844         estimate D2E/DX2                !
 ! A58   A(13,22,34)           107.9746         estimate D2E/DX2                !
 ! A59   A(16,23,35)           106.4939         estimate D2E/DX2                !
 ! A60   A(17,24,36)           109.5602         estimate D2E/DX2                !
 ! D1    D(6,1,2,3)              0.0002         estimate D2E/DX2                !
 ! D2    D(6,1,2,25)          -179.9958         estimate D2E/DX2                !
 ! D3    D(20,1,2,3)           179.9974         estimate D2E/DX2                !
 ! D4    D(20,1,2,25)            0.0015         estimate D2E/DX2                !
 ! D5    D(2,1,6,5)             -0.0012         estimate D2E/DX2                !
 ! D6    D(2,1,6,19)           179.9969         estimate D2E/DX2                !
 ! D7    D(20,1,6,5)          -179.9985         estimate D2E/DX2                !
 ! D8    D(20,1,6,19)           -0.0004         estimate D2E/DX2                !
 ! D9    D(2,1,20,32)         -179.9956         estimate D2E/DX2                !
 ! D10   D(6,1,20,32)            0.0016         estimate D2E/DX2                !
 ! D11   D(1,2,3,4)              0.0018         estimate D2E/DX2                !
 ! D12   D(1,2,3,7)           -179.9946         estimate D2E/DX2                !
 ! D13   D(25,2,3,4)           179.9976         estimate D2E/DX2                !
 ! D14   D(25,2,3,7)             0.0012         estimate D2E/DX2                !
 ! D15   D(2,3,4,5)             -0.0028         estimate D2E/DX2                !
 ! D16   D(2,3,4,10)           179.9962         estimate D2E/DX2                !
 ! D17   D(7,3,4,5)            179.9937         estimate D2E/DX2                !
 ! D18   D(7,3,4,10)            -0.0074         estimate D2E/DX2                !
 ! D19   D(2,3,7,8)            179.9741         estimate D2E/DX2                !
 ! D20   D(2,3,7,11)            -0.0269         estimate D2E/DX2                !
 ! D21   D(4,3,7,8)             -0.0223         estimate D2E/DX2                !
 ! D22   D(4,3,7,11)           179.9767         estimate D2E/DX2                !
 ! D23   D(3,4,5,6)              0.0019         estimate D2E/DX2                !
 ! D24   D(3,4,5,26)          -179.9928         estimate D2E/DX2                !
 ! D25   D(10,4,5,6)          -179.9971         estimate D2E/DX2                !
 ! D26   D(10,4,5,26)            0.0082         estimate D2E/DX2                !
 ! D27   D(3,4,10,9)             0.0291         estimate D2E/DX2                !
 ! D28   D(3,4,10,18)         -179.9652         estimate D2E/DX2                !
 ! D29   D(5,4,10,9)          -179.972          estimate D2E/DX2                !
 ! D30   D(5,4,10,18)            0.0338         estimate D2E/DX2                !
 ! D31   D(4,5,6,1)              0.0002         estimate D2E/DX2                !
 ! D32   D(4,5,6,19)          -179.9977         estimate D2E/DX2                !
 ! D33   D(26,5,6,1)           179.995          estimate D2E/DX2                !
 ! D34   D(26,5,6,19)           -0.0029         estimate D2E/DX2                !
 ! D35   D(1,6,19,31)         -179.9937         estimate D2E/DX2                !
 ! D36   D(5,6,19,31)            0.0043         estimate D2E/DX2                !
 ! D37   D(3,7,8,9)              0.0302         estimate D2E/DX2                !
 ! D38   D(3,7,8,14)          -179.9823         estimate D2E/DX2                !
 ! D39   D(11,7,8,9)          -179.9688         estimate D2E/DX2                !
 ! D40   D(11,7,8,14)            0.0186         estimate D2E/DX2                !
 ! D41   D(3,7,11,12)          179.9958         estimate D2E/DX2                !
 ! D42   D(3,7,11,27)           -0.0096         estimate D2E/DX2                !
 ! D43   D(8,7,11,12)           -0.0052         estimate D2E/DX2                !
 ! D44   D(8,7,11,27)          179.9894         estimate D2E/DX2                !
 ! D45   D(7,8,9,10)            -0.0085         estimate D2E/DX2                !
 ! D46   D(7,8,9,15)           179.9788         estimate D2E/DX2                !
 ! D47   D(14,8,9,10)         -179.9955         estimate D2E/DX2                !
 ! D48   D(14,8,9,15)           -0.0082         estimate D2E/DX2                !
 ! D49   D(7,8,14,13)           -0.0151         estimate D2E/DX2                !
 ! D50   D(7,8,14,28)          179.9897         estimate D2E/DX2                !
 ! D51   D(9,8,14,13)          179.9721         estimate D2E/DX2                !
 ! D52   D(9,8,14,28)           -0.0231         estimate D2E/DX2                !
 ! D53   D(8,9,10,4)            -0.0212         estimate D2E/DX2                !
 ! D54   D(8,9,10,18)          179.9733         estimate D2E/DX2                !
 ! D55   D(15,9,10,4)          179.9912         estimate D2E/DX2                !
 ! D56   D(15,9,10,18)          -0.0143         estimate D2E/DX2                !
 ! D57   D(8,9,15,16)         -179.9774         estimate D2E/DX2                !
 ! D58   D(8,9,15,29)            0.0166         estimate D2E/DX2                !
 ! D59   D(10,9,15,16)           0.0099         estimate D2E/DX2                !
 ! D60   D(10,9,15,29)        -179.996          estimate D2E/DX2                !
 ! D61   D(4,10,18,17)        -179.9996         estimate D2E/DX2                !
 ! D62   D(4,10,18,30)           0.0101         estimate D2E/DX2                !
 ! D63   D(9,10,18,17)           0.006          estimate D2E/DX2                !
 ! D64   D(9,10,18,30)        -179.9842         estimate D2E/DX2                !
 ! D65   D(7,11,12,13)          -0.0127         estimate D2E/DX2                !
 ! D66   D(7,11,12,21)         179.9861         estimate D2E/DX2                !
 ! D67   D(27,11,12,13)        179.9926         estimate D2E/DX2                !
 ! D68   D(27,11,12,21)         -0.0086         estimate D2E/DX2                !
 ! D69   D(11,12,13,14)          0.0164         estimate D2E/DX2                !
 ! D70   D(11,12,13,22)       -179.9874         estimate D2E/DX2                !
 ! D71   D(21,12,13,14)       -179.9825         estimate D2E/DX2                !
 ! D72   D(21,12,13,22)          0.0137         estimate D2E/DX2                !
 ! D73   D(11,12,21,33)         -0.0027         estimate D2E/DX2                !
 ! D74   D(13,12,21,33)        179.9961         estimate D2E/DX2                !
 ! D75   D(12,13,14,8)          -0.0026         estimate D2E/DX2                !
 ! D76   D(12,13,14,28)        179.9927         estimate D2E/DX2                !
 ! D77   D(22,13,14,8)        -179.9985         estimate D2E/DX2                !
 ! D78   D(22,13,14,28)         -0.0032         estimate D2E/DX2                !
 ! D79   D(12,13,22,34)        179.9992         estimate D2E/DX2                !
 ! D80   D(14,13,22,34)         -0.0048         estimate D2E/DX2                !
 ! D81   D(9,15,16,17)           0.0032         estimate D2E/DX2                !
 ! D82   D(9,15,16,23)         179.9982         estimate D2E/DX2                !
 ! D83   D(29,15,16,17)       -179.9911         estimate D2E/DX2                !
 ! D84   D(29,15,16,23)          0.0038         estimate D2E/DX2                !
 ! D85   D(15,16,17,18)         -0.0119         estimate D2E/DX2                !
 ! D86   D(15,16,17,24)        179.9824         estimate D2E/DX2                !
 ! D87   D(23,16,17,18)        179.9931         estimate D2E/DX2                !
 ! D88   D(23,16,17,24)         -0.0127         estimate D2E/DX2                !
 ! D89   D(15,16,23,35)        179.9972         estimate D2E/DX2                !
 ! D90   D(17,16,23,35)         -0.0078         estimate D2E/DX2                !
 ! D91   D(16,17,18,10)          0.0072         estimate D2E/DX2                !
 ! D92   D(16,17,18,30)        179.9977         estimate D2E/DX2                !
 ! D93   D(24,17,18,10)       -179.9863         estimate D2E/DX2                !
 ! D94   D(24,17,18,30)          0.0042         estimate D2E/DX2                !
 ! D95   D(16,17,24,36)        179.9478         estimate D2E/DX2                !
 ! D96   D(18,17,24,36)         -0.0584         estimate D2E/DX2                !
 --------------------------------------------------------------------------------
 Trust Radius=3.00D-01 FncErr=1.00D-07 GrdErr=1.00D-06 EigMax=2.50D+02 EigMin=1.00D-04
 Number of steps in this run=    205 maximum allowed number of steps=    216.
 GradGradGradGradGradGradGradGradGradGradGradGradGradGradGradGradGradGrad

                          Input orientation:                          
 ---------------------------------------------------------------------
 Center     Atomic      Atomic             Coordinates (Angstroms)
 Number     Number       Type             X           Y           Z
 ---------------------------------------------------------------------
      1          6           0       20.386391  -13.521113    0.127480
      2          6           0       20.404111  -14.911133    0.119548
      3          6           0       21.615550  -15.653395    0.118644
      4          6           0       22.859326  -14.943785    0.126206
      5          6           0       22.822392  -13.521283    0.134248
      6          6           0       21.624408  -12.819891    0.134933
      7          6           0       21.613992  -17.116886    0.110119
      8          6           0       22.848659  -17.835171    0.108862
      9          6           0       24.120424  -17.111210    0.116758
     10          6           0       24.123222  -15.679314    0.125572
     11          6           0       20.403931  -17.862008    0.102934
     12          6           0       20.371969  -19.253858    0.094669
     13          6           0       21.605463  -19.971456    0.093024
     14          6           0       22.799278  -19.255312    0.100090
     15          6           0       25.363716  -17.798656    0.116166
     16          6           0       26.581023  -17.127529    0.124057
     17          6           0       26.579687  -15.704718    0.133089
     18          6           0       25.378440  -15.008857    0.133679
     19          8           0       21.504296  -11.451585    0.142389
     20          8           0       19.216153  -12.829057    0.128158
     21          8           0       19.228376  -19.990862    0.087958
     22          8           0       21.530611  -21.329950    0.084599
     23          8           0       27.760365  -17.803908    0.123379
     24          8           0       27.829015  -15.133811    0.140824
     25          1           0       19.427659  -15.412472    0.113894
     26          1           0       23.757282  -12.940250    0.140086
     27          1           0       19.436409  -17.337270    0.103874
     28          1           0       23.733835  -19.836710    0.098737
     29          1           0       25.409838  -18.895319    0.109491
     30          1           0       25.422140  -13.908980    0.140843
     31          1           0       22.390003  -11.046487    0.147070
     32          1           0       19.454777  -11.879261    0.134212
     33          1           0       18.472736  -19.374261    0.090068
     34          1           0       22.440344  -21.681510    0.084453
     35          1           0       28.468723  -17.127688    0.129718
     36          1           0       27.744128  -14.163559    0.145870
 ---------------------------------------------------------------------
                    Distance matrix (angstroms):
                    1          2          3          4          5
     1  C    0.000000
     2  C    1.390156   0.000000
     3  C    2.461206   1.420753   0.000000
     4  C    2.852964   2.455441   1.431985   0.000000
     5  C    2.436010   2.789262   2.450023   1.423004   0.000000
     6  C    1.422833   2.421292   2.833565   2.456832   1.388206
     7  C    3.799591   2.515800   1.463517   2.504692   3.793306
     8  C    4.967314   3.811289   2.506152   2.891458   4.314043
     9  C    5.179953   4.318718   2.898210   2.507626   3.817430
    10  C    4.315292   3.797621   2.507816   1.462339   2.519788
    11  C    4.341000   2.950922   2.519174   3.813860   4.969087
    12  C    5.732857   4.342915   3.809252   4.976411   6.234465
    13  C    6.564621   5.201040   4.318149   5.181771   6.564095
    14  C    6.221239   4.960755   3.791486   4.312024   5.734177
    15  C    6.562870   5.738944   4.318669   3.797678   4.975397
    16  C    7.167964   6.562520   5.179674   4.315063   5.208879
    17  C    6.566969   6.226371   4.964423   3.797388   4.345648
    18  C    5.209028   4.975309   3.817721   2.519965   2.957407
    19  O    2.352207   3.630344   4.203350   3.745908   2.453792
    20  O    1.359558   2.397156   3.705952   4.212456   3.672080
    21  O    6.572687   5.214115   4.951077   6.217576   7.400983
    22  O    7.892339   6.517011   5.677293   6.523060   7.914951
    23  O    8.527476   7.904596   6.510260   5.674548   6.536404
    24  O    7.615355   7.428273   6.235191   4.973342   5.259901
    25  H    2.120517   1.097648   2.201121   3.463547   3.886029
    26  H    3.420595   3.889545   3.456679   2.195602   1.100751
    27  H    3.932693   2.612055   2.753962   4.176797   5.101721
    28  H    7.147935   5.945486   4.689099   4.970537   6.380957
    29  H    7.356455   6.397745   4.990669   4.703192   5.964541
    30  H    5.050682   5.117165   4.187315   2.763883   2.628506
    31  H    3.184120   4.345114   4.671636   3.925510   2.512318
    32  H    1.887757   3.177058   4.348939   4.580647   3.746607
    33  H    6.158150   4.863187   4.870620   6.234789   7.292380
    34  H    8.415025   7.070041   6.084375   6.750869   8.169317
    35  H    8.850507   8.363683   7.009967   6.019533   6.699793
    36  H    7.385754   7.378036   6.307125   4.946760   4.963481
                    6          7          8          9         10
     6  C    0.000000
     7  C    4.297079   0.000000
     8  C    5.162606   1.428404   0.000000
     9  C    4.964458   2.506447   1.463410   0.000000
    10  C    3.797428   2.891900   2.504498   1.431926   0.000000
    11  C    5.187825   1.421093   2.444882   3.791597   4.312516
    12  C    6.554857   2.471742   2.854272   4.317678   5.181720
    13  C    7.151713   2.854634   2.471740   3.808753   4.976209
    14  C    6.541879   2.444968   1.421026   2.518507   3.813298
    15  C    6.226626   3.811204   2.515333   1.420689   2.455713
    16  C    6.566879   4.967062   3.798885   2.460664   2.852738
    17  C    5.733849   5.162642   4.296509   2.833101   2.456608
    18  C    4.345610   4.314558   3.793212   2.450057   1.423078
    19  O    1.373588   5.666455   6.523696   6.235073   4.973203
    20  O    2.408282   4.912783   6.185196   6.510671   5.674795
    21  O    7.560820   3.735156   4.213536   5.676738   6.523065
    22  O    8.510725   4.213966   3.735147   4.950347   6.217154
    23  O    7.905095   6.184665   4.911827   3.705273   4.212210
    24  O    6.622040   6.523806   5.665890   4.202896   3.745759
    25  H    3.398180   2.772200   4.191985   4.990768   4.703154
    26  H    2.136273   4.694558   4.978637   4.186804   2.763439
    27  H    5.019464   2.188716   3.448388   4.689485   4.971469
    28  H    7.327124   3.448377   2.188561   2.752840   4.175678
    29  H    7.158279   4.191810   2.771922   2.201292   3.463860
    30  H    3.950812   4.979317   4.694550   3.456779   2.195792
    31  H    1.931643   6.119910   6.804267   6.306833   4.946473
    32  H    2.364759   5.665290   6.855067   7.010125   6.019540
    33  H    7.272882   3.868286   4.638734   6.084282   6.751436
    34  H    8.899247   4.638891   3.868028   4.869431   6.233789
    35  H    8.087137   6.854768   5.664458   4.348350   4.580522
    36  H    6.265504   6.804556   6.119454   4.671266   3.925415
                   11         12         13         14         15
    11  C    0.000000
    12  C    1.392241   0.000000
    13  C    2.427663   1.427045   0.000000
    14  C    2.771099   2.427315   1.392159   0.000000
    15  C    4.960207   5.199578   4.341205   2.949313   0.000000
    16  C    6.220641   6.563116   5.731063   4.339312   1.390076
    17  C    6.541771   7.150779   6.553592   5.186453   2.421456
    18  C    5.734732   6.564016   6.234132   4.968459   2.789893
    19  O    6.504297   7.884155   8.520615   7.910558   7.428400
    20  O    5.171271   6.528024   7.531527   7.357739   7.905036
    21  O    2.431907   1.360524   2.377172   3.645891   6.515287
    22  O    3.646418   2.377543   1.360581   2.431847   5.211883
    23  O    7.356692   7.529381   6.525489   5.169091   2.396666
    24  O    7.910523   8.519651   7.882747   6.502821   3.630386
    25  H    2.636940   3.955798   5.052485   5.112282   6.397707
    26  H    5.955673   7.164081   7.353258   6.387439   5.117159
    27  H    1.100659   2.132760   3.412308   3.871406   5.945250
    28  H    3.871398   3.412019   2.132641   1.100646   2.609690
    29  H    5.111446   5.050633   3.953683   2.635281   1.097653
    30  H    6.388293   7.353508   7.164002   5.955194   3.890193
    31  H    7.099138   8.451991   8.959548   8.219156   7.378056
    32  H    6.057651   7.431520   8.373217   8.098949   8.363918
    33  H    2.452874   1.903051   3.189142   4.328188   7.068863
    34  H    4.328500   3.189322   1.902994   2.452655   4.860418
    35  H    8.098198   8.371335   7.429179   6.055598   3.176704
    36  H    8.219420   8.958934   8.450897   7.097858   4.345247
                   16         17         18         19         20
    16  C    0.000000
    17  C    1.422840   0.000000
    18  C    2.436200   1.388242   0.000000
    19  O    7.615106   6.621844   5.259587   0.000000
    20  O    8.527496   7.905130   6.536462   2.670811   0.000000
    21  O    7.890589   8.509691   7.914907   8.837535   7.161928
    22  O    6.570279   7.559018   7.400298   9.878569   8.810437
    23  O    1.359535   2.408463   3.672327   8.915760   9.886998
    24  O    2.352164   1.373614   2.453769   7.318529   8.915910
    25  H    7.356095   7.158022   5.964486   4.472344   2.592098
    26  H    5.050453   3.950734   2.628180   2.700384   4.542506
    27  H    7.147720   7.327517   6.382016   6.238504   4.513656
    28  H    3.930239   5.017311   5.100403   8.676582   8.337717
    29  H    2.120606   3.398388   3.886664   8.406159   8.669580
    30  H    3.420870   2.136504   1.100768   4.624748   6.299259
    31  H    7.385408   6.265203   4.962994   0.973963   3.640225
    32  H    8.850300   8.086932   6.699564   2.093681   0.979332
    33  H    8.413874   8.898879   8.169908   8.483035   6.587398
    34  H    6.155123   7.270390   7.291031  10.272824   9.421425
    35  H    1.887708   2.365018   3.746907   8.984517  10.202367
    36  H    3.184087   1.931646   2.512202   6.803699   8.631777
                   21         22         23         24         25
    21  O    0.000000
    22  O    2.663354   0.000000
    23  O    8.807886   7.158513   0.000000
    24  O    9.877486   8.835451   2.671036   0.000000
    25  H    4.582798   6.280112   8.669086   8.406019   0.000000
    26  H    8.380026   8.680335   6.299216   4.625010   4.985800
    27  H    2.661782   4.508608   8.337048   8.677121   1.924844
    28  H    4.508108   2.661609   4.510636   6.236147   6.173918
    29  H    6.277830   4.580005   2.591592   4.472398   6.922190
    30  H    8.680714   8.379616   4.542914   2.700603   6.180212
    31  H    9.486897  10.319499   8.631575   6.803610   5.276211
    32  H    8.114892   9.676108  10.202174   8.984431   3.533373
    33  H    0.975291   3.629786   9.419510  10.272485   4.075318
    34  H    3.629744   0.975299   6.583307   8.480172   6.955428
    35  H    9.673858   8.111624   0.979329   2.094014   9.202340
    36  H   10.318859   9.485184   3.640455   0.973971   8.409784
                   26         27         28         29         30
    26  H    0.000000
    27  H    6.164823   0.000000
    28  H    6.896624   4.971428   0.000000
    29  H    6.180188   6.173281   1.922321   0.000000
    30  H    1.926185   6.898081   6.163613   4.986453   0.000000
    31  H    2.335774   6.949787   8.892482   8.409814   4.169863
    32  H    4.431397   5.458124   9.035076   9.202632   6.303112
    33  H    8.326189   2.253484   5.281392   6.953643   8.841159
    34  H    8.840082   5.281707   2.253133   4.072024   8.325053
    35  H    6.303366   9.034782   5.455174   3.532946   4.431915
    36  H    4.170307   8.893391   6.947612   5.276342   2.335908
                   31         32         33         34         35
    31  H    0.000000
    32  H    3.051103   0.000000
    33  H    9.203263   7.559192   0.000000
    34  H   10.635326  10.246959   4.589700   0.000000
    35  H    8.598380  10.430591  10.245410   7.555177   0.000000
    36  H    6.195385   8.598342  10.635471   9.200733   3.051452
                   36
    36  H    0.000000
 Stoichiometry    C18H12O6
 Framework group  C1[X(C18H12O6)]
 Deg. of freedom   102
 Full point group                 C1      NOp   1
 Largest Abelian subgroup         C1      NOp   1
 Largest concise Abelian subgroup C1      NOp   1
                         Standard orientation:                         
 ---------------------------------------------------------------------
 Center     Atomic      Atomic             Coordinates (Angstroms)
 Number     Number       Type             X           Y           Z
 ---------------------------------------------------------------------
      1          6           0       -3.644455   -1.033803    0.000103
      2          6           0       -2.867494    0.118960   -0.000029
      3          6           0       -1.447407    0.075482    0.000003
      4          6           0       -0.796332   -1.199934    0.000137
      5          6           0       -1.607172   -2.369327    0.000293
      6          6           0       -2.993598   -2.299046    0.000280
      7          6           0       -0.646283    1.300260   -0.000019
      8          6           0        0.780083    1.223997    0.000572
      9          6           0        1.446696   -0.078767    0.000536
     10          6           0        0.663932   -1.277805    0.000088
     11          6           0       -1.249691    2.586885   -0.000641
     12          6           0       -0.513275    3.768421   -0.000592
     13          6           0        0.911734    3.692229    0.000388
     14          6           0        1.517445    2.438746    0.000913
     15          6           0        2.863366   -0.185553    0.000667
     16          6           0        3.513404   -1.414276    0.000171
     17          6           0        2.732165   -2.603451   -0.000559
     18          6           0        1.346042   -2.526755   -0.000519
     19          8           0       -3.844282   -3.377507    0.000469
     20          8           0       -5.002559   -0.970928    0.000121
     21          8           0       -1.065548    5.011811   -0.001450
     22          8           0        1.593994    4.869388    0.000669
     23          8           0        4.870526   -1.495253    0.000270
     24          8           0        3.463932   -3.765919   -0.001392
     25          1           0       -3.409203    1.073623   -0.000091
     26          1           0       -1.143915   -3.367849    0.000518
     27          1           0       -2.346528    2.678535   -0.001282
     28          1           0        2.617779    2.412555    0.001542
     29          1           0        3.503234    0.706305    0.001072
     30          1           0        0.779529   -3.470553   -0.001137
     31          1           0       -3.325693   -4.201927    0.000683
     32          1           0       -5.323771   -1.896084    0.000294
     33          1           0       -2.035559    4.910460   -0.002120
     34          1           0        2.547549    4.664594    0.001362
     35          1           0        5.092146   -2.449176   -0.000097
     36          1           0        2.860957   -4.530799   -0.001017
 ---------------------------------------------------------------------
 Rotational constants (GHZ):           0.2235267           0.2217051           0.1113061
 Standard basis: def2SVP (5D, 7F)
 There are   420 symmetry adapted cartesian basis functions of A   symmetry.
 There are   396 symmetry adapted basis functions of A   symmetry.
   396 basis functions,   684 primitive gaussians,   420 cartesian basis functions
    84 alpha electrons       84 beta electrons
       nuclear repulsion energy      1930.8553079308 Hartrees.
 NAtoms=   36 NActive=   36 NUniq=   36 SFac= 1.00D+00 NAtFMM=   60 NAOKFM=F Big=F
 Integral buffers will be    131072 words long.
 Raffenetti 2 integral format.
 Two-electron integral symmetry is turned on.
 Nuclear repulsion after empirical dispersion term =     1930.8305895157 Hartrees.
 One-electron integrals computed using PRISM.
   1 Symmetry operations used in ECPInt.
 ECPInt:  NShTT=   16290 NPrTT=   61074 LenC2=   14087 LenP2D=   35828.
 LDataN:  DoStor=T MaxTD1= 4 Len=   56
 NBasis=   396 RedAO= T EigKep=  1.07D-04  NBF=   396
 NBsUse=   396 1.00D-06 EigRej= -1.00D+00 NBFU=   396
 ExpMin= 1.22D-01 ExpMax= 2.27D+03 ExpMxC= 3.41D+02 IAcc=3 IRadAn=         5 AccDes= 0.00D+00
 Harris functional with IExCor= 4639 and IRadAn=       5 diagonalized for initial guess.
 HarFok:  IExCor= 4639 AccDes= 0.00D+00 IRadAn=         5 IDoV= 1 UseB2=F ITyADJ=14
 ICtDFT=  3500011 ScaDFX=  1.000000  1.000000  1.000000  1.000000
 FoFCou: FMM=F IPFlag=           0 FMFlag=      100000 FMFlg1=           0
         NFxFlg=           0 DoJE=T BraDBF=F KetDBF=T FulRan=T
         wScrn=  0.000000 ICntrl=       500 IOpCl=  0 I1Cent=   200000004 NGrid=           0
         NMat0=    1 NMatS0=      1 NMatT0=    0 NMatD0=    1 NMtDS0=    0 NMtDT0=    0
 Petite list used in FoFCou.
 Requested convergence on RMS density matrix=1.00D-08 within  32 cycles.
 Requested convergence on MAX density matrix=1.00D-06.
 Requested convergence on             energy=1.00D-06.
 No special actions if energy rises.
 Integral accuracy reduced to 1.0D-05 until final iterations.
 Initial convergence to 1.0D-05 achieved.  Increase integral accuracy.
 SCF Done:  E(RwB97XD) =  -1143.31076879     A.U. after   16 cycles
            NFock= 16  Conv=0.81D-08     -V/T= 2.0101
 QCSCF skips out because SCF is already converged.

 **********************************************************************

            Population analysis using the SCF density.

 **********************************************************************

 Orbital symmetries:
       Occupied  (A) (A) (A) (A) (A) (A) (A) (A) (A) (A) (A) (A)
                 (A) (A) (A) (A) (A) (A) (A) (A) (A) (A) (A) (A)
                 (A) (A) (A) (A) (A) (A) (A) (A) (A) (A) (A) (A)
                 (A) (A) (A) (A) (A) (A) (A) (A) (A) (A) (A) (A)
                 (A) (A) (A) (A) (A) (A) (A) (A) (A) (A) (A) (A)
                 (A) (A) (A) (A) (A) (A) (A) (A) (A) (A) (A) (A)
                 (A) (A) (A) (A) (A) (A) (A) (A) (A) (A) (A) (A)
       Virtual   (A) (A) (A) (A) (A) (A) (A) (A) (A) (A) (A) (A)
                 (A) (A) (A) (A) (A) (A) (A) (A) (A) (A) (A) (A)
                 (A) (A) (A) (A) (A) (A) (A) (A) (A) (A) (A) (A)
                 (A) (A) (A) (A) (A) (A) (A) (A) (A) (A) (A) (A)
                 (A) (A) (A) (A) (A) (A) (A) (A) (A) (A) (A) (A)
                 (A) (A) (A) (A) (A) (A) (A) (A) (A) (A) (A) (A)
                 (A) (A) (A) (A) (A) (A) (A) (A) (A) (A) (A) (A)
                 (A) (A) (A) (A) (A) (A) (A) (A) (A) (A) (A) (A)
                 (A) (A) (A) (A) (A) (A) (A) (A) (A) (A) (A) (A)
                 (A) (A) (A) (A) (A) (A) (A) (A) (A) (A) (A) (A)
                 (A) (A) (A) (A) (A) (A) (A) (A) (A) (A) (A) (A)
                 (A) (A) (A) (A) (A) (A) (A) (A) (A) (A) (A) (A)
                 (A) (A) (A) (A) (A) (A) (A) (A) (A) (A) (A) (A)
                 (A) (A) (A) (A) (A) (A) (A) (A) (A) (A) (A) (A)
                 (A) (A) (A) (A) (A) (A) (A) (A) (A) (A) (A) (A)
                 (A) (A) (A) (A) (A) (A) (A) (A) (A) (A) (A) (A)
                 (A) (A) (A) (A) (A) (A) (A) (A) (A) (A) (A) (A)
                 (A) (A) (A) (A) (A) (A) (A) (A) (A) (A) (A) (A)
                 (A) (A) (A) (A) (A) (A) (A) (A) (A) (A) (A) (A)
                 (A) (A) (A) (A) (A) (A) (A) (A) (A) (A) (A) (A)
                 (A) (A) (A) (A) (A) (A) (A) (A) (A) (A) (A) (A)
                 (A) (A) (A) (A) (A) (A) (A) (A) (A) (A) (A) (A)
                 (A) (A) (A) (A) (A) (A) (A) (A) (A) (A) (A) (A)
                 (A) (A) (A) (A) (A) (A) (A) (A) (A) (A) (A) (A)
                 (A) (A) (A) (A) (A) (A) (A) (A) (A) (A) (A) (A)
                 (A) (A) (A) (A) (A) (A) (A) (A) (A) (A) (A) (A)
 The electronic state is 1-A.
 Alpha  occ. eigenvalues --  -19.31036 -19.31033 -19.28765 -19.28753 -19.28672
 Alpha  occ. eigenvalues --  -19.28671 -10.37020 -10.37018 -10.36389 -10.36388
 Alpha  occ. eigenvalues --  -10.36319 -10.36288 -10.31622 -10.31607 -10.31493
 Alpha  occ. eigenvalues --  -10.31481 -10.31360 -10.31348 -10.31230 -10.31197
 Alpha  occ. eigenvalues --  -10.30416 -10.30403 -10.30227 -10.30225  -1.17542
 Alpha  occ. eigenvalues --   -1.17540  -1.16066  -1.14152  -1.14150  -1.13937
 Alpha  occ. eigenvalues --   -0.97865  -0.93961  -0.93740  -0.87412  -0.86363
 Alpha  occ. eigenvalues --   -0.86242  -0.82225  -0.80948  -0.80626  -0.75718
 Alpha  occ. eigenvalues --   -0.73962  -0.73015  -0.71357  -0.69497  -0.66663
 Alpha  occ. eigenvalues --   -0.66149  -0.64633  -0.64266  -0.63052  -0.62794
 Alpha  occ. eigenvalues --   -0.59086  -0.58763  -0.58067  -0.55692  -0.54901
 Alpha  occ. eigenvalues --   -0.53421  -0.53355  -0.52972  -0.52922  -0.52136
 Alpha  occ. eigenvalues --   -0.51236  -0.50658  -0.49959  -0.49640  -0.48985
 Alpha  occ. eigenvalues --   -0.47577  -0.47306  -0.47108  -0.46652  -0.46477
 Alpha  occ. eigenvalues --   -0.45829  -0.45573  -0.44847  -0.43925  -0.41871
 Alpha  occ. eigenvalues --   -0.41414  -0.41378  -0.41254  -0.34230  -0.33578
 Alpha  occ. eigenvalues --   -0.32115  -0.30359  -0.26279  -0.26126
 Alpha virt. eigenvalues --    0.02961   0.02976   0.03813   0.10154   0.10182
 Alpha virt. eigenvalues --    0.10527   0.11157   0.12871   0.13075   0.13859
 Alpha virt. eigenvalues --    0.14223   0.15883   0.17161   0.18004   0.18663
 Alpha virt. eigenvalues --    0.23221   0.23454   0.23580   0.23597   0.26472
 Alpha virt. eigenvalues --    0.28532   0.29483   0.30116   0.31524   0.31608
 Alpha virt. eigenvalues --    0.32242   0.32655   0.33470   0.34035   0.34566
 Alpha virt. eigenvalues --    0.36599   0.37087   0.37870   0.37987   0.38614
 Alpha virt. eigenvalues --    0.38878   0.39381   0.39579   0.40402   0.42083
 Alpha virt. eigenvalues --    0.42371   0.43270   0.45274   0.45313   0.45857
 Alpha virt. eigenvalues --    0.47868   0.48024   0.51090   0.52043   0.52619
 Alpha virt. eigenvalues --    0.53115   0.53539   0.55228   0.55262   0.56792
 Alpha virt. eigenvalues --    0.57278   0.57810   0.58201   0.59731   0.59869
 Alpha virt. eigenvalues --    0.60035   0.60592   0.60774   0.61658   0.62347
 Alpha virt. eigenvalues --    0.62924   0.63301   0.64296   0.64429   0.64691
 Alpha virt. eigenvalues --    0.64729   0.65535   0.66618   0.66801   0.67158
 Alpha virt. eigenvalues --    0.67715   0.67940   0.69222   0.69757   0.72405
 Alpha virt. eigenvalues --    0.72942   0.74139   0.74177   0.74447   0.75942
 Alpha virt. eigenvalues --    0.76133   0.76664   0.77916   0.78136   0.81312
 Alpha virt. eigenvalues --    0.81592   0.81921   0.82119   0.83549   0.84191
 Alpha virt. eigenvalues --    0.84371   0.84977   0.85609   0.86214   0.87837
 Alpha virt. eigenvalues --    0.89806   0.90941   0.91642   0.92570   0.92831
 Alpha virt. eigenvalues --    0.93479   0.93849   0.95702   0.97393   0.99759
 Alpha virt. eigenvalues --    1.01501   1.02266   1.02388   1.03789   1.04179
 Alpha virt. eigenvalues --    1.04719   1.05070   1.06448   1.07592   1.09851
 Alpha virt. eigenvalues --    1.12101   1.12243   1.12495   1.13592   1.15774
 Alpha virt. eigenvalues --    1.16214   1.19464   1.20250   1.21476   1.22347
 Alpha virt. eigenvalues --    1.23057   1.25244   1.26678   1.28037   1.28762
 Alpha virt. eigenvalues --    1.29528   1.30442   1.31119   1.31400   1.31838
 Alpha virt. eigenvalues --    1.31948   1.32183   1.32893   1.33807   1.35640
 Alpha virt. eigenvalues --    1.36882   1.37175   1.38293   1.38949   1.41202
 Alpha virt. eigenvalues --    1.41972   1.42970   1.43896   1.44102   1.44720
 Alpha virt. eigenvalues --    1.45091   1.45423   1.45715   1.46250   1.47168
 Alpha virt. eigenvalues --    1.47219   1.56470   1.56644   1.57528   1.57599
 Alpha virt. eigenvalues --    1.58201   1.58769   1.60447   1.61883   1.63417
 Alpha virt. eigenvalues --    1.63537   1.66144   1.67548   1.72136   1.72971
 Alpha virt. eigenvalues --    1.73407   1.74975   1.75922   1.78135   1.78786
 Alpha virt. eigenvalues --    1.79049   1.79325   1.79656   1.80227   1.81231
 Alpha virt. eigenvalues --    1.82081   1.82579   1.82891   1.83280   1.85344
 Alpha virt. eigenvalues --    1.85437   1.85801   1.86304   1.87902   1.87927
 Alpha virt. eigenvalues --    1.89618   1.91032   1.91303   1.91999   1.93730
 Alpha virt. eigenvalues --    1.94218   1.94578   1.95481   1.96243   1.97208
 Alpha virt. eigenvalues --    1.97451   1.97812   1.97923   2.02122   2.03054
 Alpha virt. eigenvalues --    2.06350   2.09937   2.11034   2.11959   2.14921
 Alpha virt. eigenvalues --    2.14961   2.15469   2.15566   2.15714   2.16002
 Alpha virt. eigenvalues --    2.20614   2.21383   2.21854   2.23073   2.23503
 Alpha virt. eigenvalues --    2.26355   2.26697   2.26947   2.27128   2.27346
 Alpha virt. eigenvalues --    2.27385   2.29048   2.29420   2.29981   2.30998
 Alpha virt. eigenvalues --    2.31245   2.31759   2.31890   2.34017   2.34300
 Alpha virt. eigenvalues --    2.34909   2.36737   2.37283   2.37311   2.37634
 Alpha virt. eigenvalues --    2.38913   2.48882   2.48967   2.51899   2.52385
 Alpha virt. eigenvalues --    2.55978   2.62864   2.62902   2.64239   2.64335
 Alpha virt. eigenvalues --    2.66431   2.66455   2.69759   2.71081   2.71385
 Alpha virt. eigenvalues --    2.72260   2.72616   2.73698   2.73898   2.74771
 Alpha virt. eigenvalues --    2.76351   2.78642   2.83981   2.84114   2.91125
 Alpha virt. eigenvalues --    2.91426   2.93296   2.93513   2.94873   2.95097
 Alpha virt. eigenvalues --    2.97751   2.98391   3.00068   3.00121   3.02076
 Alpha virt. eigenvalues --    3.02333   3.02891   3.04142   3.04267   3.04327
 Alpha virt. eigenvalues --    3.08536   3.08763   3.10255   3.17348   3.18687
 Alpha virt. eigenvalues --    3.18963   3.21604   3.23135   3.31334   3.34316
 Alpha virt. eigenvalues --    3.36685   3.37964   3.41744   3.46474   3.48250
 Alpha virt. eigenvalues --    3.50737   3.52882   3.56063   3.59089   3.62100
 Alpha virt. eigenvalues --    3.68294   3.80656   3.86353   3.87013   3.90949
 Alpha virt. eigenvalues --    3.92991   3.96900
          Condensed to atoms (all electrons):
               1          2          3          4          5          6
     1  C    5.041282   0.360400   0.080499  -0.123185   0.039398   0.120082
     2  C    0.360400   5.252890   0.368494  -0.010058  -0.081674   0.003021
     3  C    0.080499   0.368494   5.354532   0.291365  -0.026166  -0.143670
     4  C   -0.123185  -0.010058   0.291365   5.325267   0.338395   0.089125
     5  C    0.039398  -0.081674  -0.026166   0.338395   5.367037   0.263094
     6  C    0.120082   0.003021  -0.143670   0.089125   0.263094   5.296953
     7  C    0.023593  -0.119436   0.294961  -0.032328   0.018027  -0.003168
     8  C    0.000935   0.015007  -0.035483  -0.096072  -0.001132  -0.000364
     9  C   -0.000412  -0.001132  -0.096544  -0.035358   0.016151   0.000831
    10  C   -0.003721   0.017096  -0.035370   0.291972  -0.096885   0.022065
    11  C    0.000248  -0.017891  -0.099159   0.015397  -0.000166  -0.000155
    12  C   -0.000242   0.000694   0.024092   0.001064  -0.000004   0.000009
    13  C    0.000010  -0.000002  -0.004481  -0.000439   0.000000  -0.000001
    14  C   -0.000003  -0.000326   0.019687  -0.001124   0.000034   0.000001
    15  C   -0.000000   0.000040  -0.001130   0.017088  -0.000237  -0.000004
    16  C   -0.000001  -0.000000  -0.000412  -0.003721   0.000067   0.000009
    17  C    0.000009  -0.000004   0.000832   0.022057   0.000384  -0.000219
    18  C    0.000067  -0.000236   0.016129  -0.096906  -0.020501   0.000385
    19  O   -0.090453   0.002942   0.000172   0.003297  -0.075166   0.403203
    20  O    0.474200  -0.085264   0.002398  -0.000228   0.004548  -0.095111
    21  O   -0.000000  -0.000009  -0.000042   0.000001  -0.000000   0.000000
    22  O    0.000000   0.000000   0.000002  -0.000000  -0.000000  -0.000000
    23  O    0.000000  -0.000000  -0.000000   0.000004  -0.000000   0.000000
    24  O   -0.000000   0.000000   0.000001  -0.000061  -0.000005  -0.000000
    25  H   -0.062867   0.423497  -0.047713   0.015490  -0.004063   0.025089
    26  H    0.016808  -0.002643   0.018725  -0.011065   0.409563  -0.080152
    27  H    0.002014   0.009787  -0.042622  -0.001297   0.000114  -0.000270
    28  H   -0.000000   0.000008  -0.000141  -0.000031   0.000000   0.000000
    29  H    0.000000  -0.000000  -0.000046  -0.000032   0.000007  -0.000000
    30  H   -0.000159   0.000074  -0.001813  -0.046534   0.010242   0.002609
    31  H    0.010656  -0.000390  -0.000011   0.000414  -0.021411  -0.009449
    32  H   -0.013959   0.011158  -0.000147  -0.000253   0.002030  -0.035639
    33  H    0.000000  -0.000003  -0.000035   0.000000  -0.000000   0.000000
    34  H    0.000000   0.000000  -0.000002  -0.000000  -0.000000  -0.000000
    35  H    0.000000  -0.000000  -0.000000   0.000005  -0.000000  -0.000000
    36  H    0.000000  -0.000000  -0.000000  -0.000026   0.000006   0.000000
               7          8          9         10         11         12
     1  C    0.023593   0.000935  -0.000412  -0.003721   0.000248  -0.000242
     2  C   -0.119436   0.015007  -0.001132   0.017096  -0.017891   0.000694
     3  C    0.294961  -0.035483  -0.096544  -0.035370  -0.099159   0.024092
     4  C   -0.032328  -0.096072  -0.035358   0.291972   0.015397   0.001064
     5  C    0.018027  -0.001132   0.016151  -0.096885  -0.000166  -0.000004
     6  C   -0.003168  -0.000364   0.000831   0.022065  -0.000155   0.000009
     7  C    5.355530   0.292730  -0.035610  -0.096018   0.345609   0.083389
     8  C    0.292730   5.355695   0.294807  -0.032248  -0.031852  -0.126481
     9  C   -0.035610   0.294807   5.354664   0.291425   0.019693  -0.004485
    10  C   -0.096018  -0.032248   0.291425   5.325330  -0.001131  -0.000439
    11  C    0.345609  -0.031852   0.019693  -0.001131   5.363333   0.317712
    12  C    0.083389  -0.126481  -0.004485  -0.000439   0.317712   5.129910
    13  C   -0.126450   0.083384   0.024138   0.001063  -0.004134   0.141535
    14  C   -0.031818   0.345521  -0.099128   0.015430  -0.072290  -0.003984
    15  C    0.015009  -0.119482   0.368582  -0.010186  -0.000325  -0.000003
    16  C    0.000936   0.023630   0.080468  -0.123134  -0.000003   0.000010
    17  C   -0.000364  -0.003165  -0.143605   0.089051   0.000001  -0.000001
    18  C   -0.001130   0.018029  -0.026198   0.338436   0.000034   0.000000
    19  O    0.000003  -0.000000   0.000001  -0.000060  -0.000000   0.000000
    20  O   -0.000006   0.000001  -0.000000   0.000004  -0.000016  -0.000000
    21  O    0.003200   0.000078   0.000002  -0.000000  -0.079439   0.446439
    22  O    0.000077   0.003201  -0.000042   0.000001   0.002442  -0.091363
    23  O    0.000001  -0.000006   0.002399  -0.000226  -0.000000  -0.000000
    24  O   -0.000000   0.000003   0.000172   0.003300  -0.000000   0.000000
    25  H   -0.037491  -0.001161  -0.000045  -0.000033   0.005222   0.002124
    26  H   -0.000141   0.000007  -0.001812  -0.046569   0.000005  -0.000000
    27  H   -0.016273   0.018398  -0.000142  -0.000030   0.415438  -0.082284
    28  H    0.018388  -0.016224  -0.042692  -0.001292  -0.002918   0.020152
    29  H   -0.001161  -0.037513  -0.047662   0.015468   0.000070  -0.000208
    30  H    0.000007  -0.000141   0.018712  -0.011076   0.000000   0.000000
    31  H   -0.000002  -0.000000  -0.000000  -0.000026   0.000000   0.000000
    32  H    0.000012  -0.000000  -0.000000   0.000005   0.000001   0.000000
    33  H    0.000431   0.000010  -0.000002  -0.000000  -0.025694  -0.011707
    34  H    0.000010   0.000430  -0.000035   0.000000  -0.000423   0.013554
    35  H   -0.000000   0.000012  -0.000147  -0.000253   0.000000   0.000000
    36  H   -0.000000  -0.000002  -0.000011   0.000415  -0.000000  -0.000000
              13         14         15         16         17         18
     1  C    0.000010  -0.000003  -0.000000  -0.000001   0.000009   0.000067
     2  C   -0.000002  -0.000326   0.000040  -0.000000  -0.000004  -0.000236
     3  C   -0.004481   0.019687  -0.001130  -0.000412   0.000832   0.016129
     4  C   -0.000439  -0.001124   0.017088  -0.003721   0.022057  -0.096906
     5  C    0.000000   0.000034  -0.000237   0.000067   0.000384  -0.020501
     6  C   -0.000001   0.000001  -0.000004   0.000009  -0.000219   0.000385
     7  C   -0.126450  -0.031818   0.015009   0.000936  -0.000364  -0.001130
     8  C    0.083384   0.345521  -0.119482   0.023630  -0.003165   0.018029
     9  C    0.024138  -0.099128   0.368582   0.080468  -0.143605  -0.026198
    10  C    0.001063   0.015430  -0.010186  -0.123134   0.089051   0.338436
    11  C   -0.004134  -0.072290  -0.000325  -0.000003   0.000001   0.000034
    12  C    0.141535  -0.003984  -0.000003   0.000010  -0.000001   0.000000
    13  C    5.130372   0.317007   0.000705  -0.000244   0.000009  -0.000004
    14  C    0.317007   5.364194  -0.017935   0.000252  -0.000155  -0.000168
    15  C    0.000705  -0.017935   5.253207   0.360247   0.002835  -0.081537
    16  C   -0.000244   0.000252   0.360247   5.041410   0.120103   0.039361
    17  C    0.000009  -0.000155   0.002835   0.120103   5.296856   0.263272
    18  C   -0.000004  -0.000168  -0.081537   0.039361   0.263272   5.366705
    19  O    0.000000  -0.000000   0.000000  -0.000000  -0.000000  -0.000005
    20  O   -0.000000  -0.000000  -0.000000   0.000000   0.000000  -0.000000
    21  O   -0.091384   0.002450   0.000000   0.000000  -0.000000  -0.000000
    22  O    0.446546  -0.079519  -0.000010  -0.000000   0.000000  -0.000000
    23  O   -0.000000  -0.000016  -0.085405   0.474227  -0.095050   0.004541
    24  O    0.000000  -0.000000   0.002940  -0.090478   0.403239  -0.075150
    25  H   -0.000207   0.000070  -0.000000   0.000000  -0.000000   0.000007
    26  H    0.000000   0.000000   0.000074  -0.000159   0.002610   0.010240
    27  H    0.020137  -0.002920   0.000008  -0.000000   0.000000   0.000000
    28  H   -0.082334   0.415440   0.009774   0.002022  -0.000272   0.000115
    29  H    0.002135   0.005206   0.423465  -0.062845   0.025092  -0.004061
    30  H   -0.000000   0.000005  -0.002638   0.016794  -0.080143   0.409608
    31  H   -0.000000  -0.000000  -0.000000   0.000000   0.000000   0.000006
    32  H    0.000000   0.000000  -0.000000   0.000000  -0.000000  -0.000000
    33  H    0.013558  -0.000425   0.000000   0.000000  -0.000000  -0.000000
    34  H   -0.011676  -0.025740  -0.000003   0.000000   0.000000  -0.000000
    35  H    0.000000   0.000001   0.011169  -0.013974  -0.035618   0.002029
    36  H    0.000000   0.000000  -0.000390   0.010660  -0.009467  -0.021407
              19         20         21         22         23         24
     1  C   -0.090453   0.474200  -0.000000   0.000000   0.000000  -0.000000
     2  C    0.002942  -0.085264  -0.000009   0.000000  -0.000000   0.000000
     3  C    0.000172   0.002398  -0.000042   0.000002  -0.000000   0.000001
     4  C    0.003297  -0.000228   0.000001  -0.000000   0.000004  -0.000061
     5  C   -0.075166   0.004548  -0.000000  -0.000000  -0.000000  -0.000005
     6  C    0.403203  -0.095111   0.000000  -0.000000   0.000000  -0.000000
     7  C    0.000003  -0.000006   0.003200   0.000077   0.000001  -0.000000
     8  C   -0.000000   0.000001   0.000078   0.003201  -0.000006   0.000003
     9  C    0.000001  -0.000000   0.000002  -0.000042   0.002399   0.000172
    10  C   -0.000060   0.000004  -0.000000   0.000001  -0.000226   0.003300
    11  C   -0.000000  -0.000016  -0.079439   0.002442  -0.000000  -0.000000
    12  C    0.000000  -0.000000   0.446439  -0.091363  -0.000000   0.000000
    13  C    0.000000  -0.000000  -0.091384   0.446546  -0.000000   0.000000
    14  C   -0.000000  -0.000000   0.002450  -0.079519  -0.000016  -0.000000
    15  C    0.000000  -0.000000   0.000000  -0.000010  -0.085405   0.002940
    16  C   -0.000000   0.000000   0.000000  -0.000000   0.474227  -0.090478
    17  C   -0.000000   0.000000  -0.000000   0.000000  -0.095050   0.403239
    18  C   -0.000005  -0.000000  -0.000000  -0.000000   0.004541  -0.075150
    19  O    7.674113  -0.005633   0.000000  -0.000000   0.000000   0.000000
    20  O   -0.005633   7.580808   0.000000   0.000000  -0.000000   0.000000
    21  O    0.000000   0.000000   7.603732   0.002170   0.000000  -0.000000
    22  O   -0.000000   0.000000   0.002170   7.603687   0.000000   0.000000
    23  O    0.000000  -0.000000   0.000000   0.000000   7.580831  -0.005625
    24  O    0.000000   0.000000  -0.000000   0.000000  -0.005625   7.674077
    25  H   -0.000062   0.004918  -0.000036   0.000000  -0.000000   0.000000
    26  H   -0.002707  -0.000073   0.000000  -0.000000  -0.000000  -0.000042
    27  H   -0.000000  -0.000095  -0.003414  -0.000060   0.000000  -0.000000
    28  H   -0.000000   0.000000  -0.000060  -0.003409  -0.000096  -0.000000
    29  H    0.000000  -0.000000   0.000000  -0.000037   0.004951  -0.000062
    30  H   -0.000042  -0.000000  -0.000000   0.000000  -0.000073  -0.002706
    31  H    0.328299   0.000009   0.000000   0.000000   0.000000   0.000000
    32  H    0.026476   0.332659  -0.000000   0.000000  -0.000000   0.000000
    33  H    0.000000   0.000000   0.323838  -0.000150   0.000000   0.000000
    34  H    0.000000   0.000000  -0.000151   0.323851   0.000000   0.000000
    35  H    0.000000  -0.000000   0.000000  -0.000000   0.332641   0.026463
    36  H    0.000000   0.000000   0.000000   0.000000   0.000009   0.328283
              25         26         27         28         29         30
     1  C   -0.062867   0.016808   0.002014  -0.000000   0.000000  -0.000159
     2  C    0.423497  -0.002643   0.009787   0.000008  -0.000000   0.000074
     3  C   -0.047713   0.018725  -0.042622  -0.000141  -0.000046  -0.001813
     4  C    0.015490  -0.011065  -0.001297  -0.000031  -0.000032  -0.046534
     5  C   -0.004063   0.409563   0.000114   0.000000   0.000007   0.010242
     6  C    0.025089  -0.080152  -0.000270   0.000000  -0.000000   0.002609
     7  C   -0.037491  -0.000141  -0.016273   0.018388  -0.001161   0.000007
     8  C   -0.001161   0.000007   0.018398  -0.016224  -0.037513  -0.000141
     9  C   -0.000045  -0.001812  -0.000142  -0.042692  -0.047662   0.018712
    10  C   -0.000033  -0.046569  -0.000030  -0.001292   0.015468  -0.011076
    11  C    0.005222   0.000005   0.415438  -0.002918   0.000070   0.000000
    12  C    0.002124  -0.000000  -0.082284   0.020152  -0.000208   0.000000
    13  C   -0.000207   0.000000   0.020137  -0.082334   0.002135  -0.000000
    14  C    0.000070   0.000000  -0.002920   0.415440   0.005206   0.000005
    15  C   -0.000000   0.000074   0.000008   0.009774   0.423465  -0.002638
    16  C    0.000000  -0.000159  -0.000000   0.002022  -0.062845   0.016794
    17  C   -0.000000   0.002610   0.000000  -0.000272   0.025092  -0.080143
    18  C    0.000007   0.010240   0.000000   0.000115  -0.004061   0.409608
    19  O   -0.000062  -0.002707  -0.000000  -0.000000   0.000000  -0.000042
    20  O    0.004918  -0.000073  -0.000095   0.000000  -0.000000  -0.000000
    21  O   -0.000036   0.000000  -0.003414  -0.000060   0.000000  -0.000000
    22  O    0.000000  -0.000000  -0.000060  -0.003409  -0.000037   0.000000
    23  O   -0.000000  -0.000000   0.000000  -0.000096   0.004951  -0.000073
    24  O    0.000000  -0.000042  -0.000000  -0.000000  -0.000062  -0.002706
    25  H    0.681873  -0.000008  -0.008649   0.000001  -0.000000   0.000001
    26  H   -0.000008   0.718131   0.000001  -0.000000   0.000001  -0.009164
    27  H   -0.008649   0.000001   0.704954  -0.000035   0.000001  -0.000000
    28  H    0.000001  -0.000000  -0.000035   0.705154  -0.008733   0.000001
    29  H   -0.000000   0.000001   0.000001  -0.008733   0.681902  -0.000008
    30  H    0.000001  -0.009164  -0.000000   0.000001  -0.000008   0.718011
    31  H    0.000019   0.007999  -0.000000   0.000000  -0.000000  -0.000067
    32  H   -0.000868  -0.000089   0.000004  -0.000000  -0.000000   0.000000
    33  H   -0.000075   0.000000   0.008856   0.000016  -0.000000   0.000000
    34  H   -0.000000   0.000000   0.000016   0.008870  -0.000076   0.000000
    35  H   -0.000000   0.000000  -0.000000   0.000004  -0.000869  -0.000089
    36  H   -0.000000  -0.000067   0.000000  -0.000000   0.000019   0.007993
              31         32         33         34         35         36
     1  C    0.010656  -0.013959   0.000000   0.000000   0.000000   0.000000
     2  C   -0.000390   0.011158  -0.000003   0.000000  -0.000000  -0.000000
     3  C   -0.000011  -0.000147  -0.000035  -0.000002  -0.000000  -0.000000
     4  C    0.000414  -0.000253   0.000000  -0.000000   0.000005  -0.000026
     5  C   -0.021411   0.002030  -0.000000  -0.000000  -0.000000   0.000006
     6  C   -0.009449  -0.035639   0.000000  -0.000000  -0.000000   0.000000
     7  C   -0.000002   0.000012   0.000431   0.000010  -0.000000  -0.000000
     8  C   -0.000000  -0.000000   0.000010   0.000430   0.000012  -0.000002
     9  C   -0.000000  -0.000000  -0.000002  -0.000035  -0.000147  -0.000011
    10  C   -0.000026   0.000005  -0.000000   0.000000  -0.000253   0.000415
    11  C    0.000000   0.000001  -0.025694  -0.000423   0.000000  -0.000000
    12  C    0.000000   0.000000  -0.011707   0.013554   0.000000  -0.000000
    13  C   -0.000000   0.000000   0.013558  -0.011676   0.000000   0.000000
    14  C   -0.000000   0.000000  -0.000425  -0.025740   0.000001   0.000000
    15  C   -0.000000  -0.000000   0.000000  -0.000003   0.011169  -0.000390
    16  C    0.000000   0.000000   0.000000   0.000000  -0.013974   0.010660
    17  C    0.000000  -0.000000  -0.000000   0.000000  -0.035618  -0.009467
    18  C    0.000006  -0.000000  -0.000000  -0.000000   0.002029  -0.021407
    19  O    0.328299   0.026476   0.000000   0.000000   0.000000   0.000000
    20  O    0.000009   0.332659   0.000000   0.000000  -0.000000   0.000000
    21  O    0.000000  -0.000000   0.323838  -0.000151   0.000000   0.000000
    22  O    0.000000   0.000000  -0.000150   0.323851  -0.000000   0.000000
    23  O    0.000000  -0.000000   0.000000   0.000000   0.332641   0.000009
    24  O    0.000000   0.000000   0.000000   0.000000   0.026463   0.328283
    25  H    0.000019  -0.000868  -0.000075  -0.000000  -0.000000  -0.000000
    26  H    0.007999  -0.000089   0.000000   0.000000   0.000000  -0.000067
    27  H   -0.000000   0.000004   0.008856   0.000016  -0.000000   0.000000
    28  H    0.000000  -0.000000   0.000016   0.008870   0.000004  -0.000000
    29  H   -0.000000  -0.000000  -0.000000  -0.000076  -0.000869   0.000019
    30  H   -0.000067   0.000000   0.000000   0.000000  -0.000089   0.007993
    31  H    0.480174  -0.001602  -0.000000  -0.000000  -0.000000   0.000000
    32  H   -0.001602   0.480152  -0.000000  -0.000000   0.000000  -0.000000
    33  H   -0.000000  -0.000000   0.495848   0.000044  -0.000000  -0.000000
    34  H   -0.000000  -0.000000   0.000044   0.495826  -0.000000  -0.000000
    35  H   -0.000000   0.000000  -0.000000  -0.000000   0.480200  -0.001601
    36  H    0.000000  -0.000000  -0.000000  -0.000000  -0.001601   0.480227
 Mulliken charges:
               1
     1  C    0.124805
     2  C   -0.146042
     3  C    0.063098
     4  C    0.047777
     5  C   -0.141687
     6  C    0.141726
     7  C    0.049484
     8  C    0.049449
     9  C    0.063018
    10  C    0.047637
    11  C   -0.149609
    12  C    0.140516
    13  C    0.140756
    14  C   -0.149747
    15  C   -0.145857
    16  C    0.124776
    17  C    0.141714
    18  C   -0.141661
    19  O   -0.264378
    20  O   -0.213118
    21  O   -0.207374
    22  O   -0.207386
    23  O   -0.213105
    24  O   -0.264349
    25  H    0.004965
    26  H   -0.029474
    27  H   -0.021638
    28  H   -0.021708
    29  H    0.004996
    30  H   -0.029405
    31  H    0.205382
    32  H    0.200059
    33  H    0.195489
    34  H    0.195504
    35  H    0.200029
    36  H    0.205359
 Sum of Mulliken charges =  -0.00000
 Mulliken charges with hydrogens summed into heavy atoms:
               1
     1  C    0.124805
     2  C   -0.141077
     3  C    0.063098
     4  C    0.047777
     5  C   -0.171161
     6  C    0.141726
     7  C    0.049484
     8  C    0.049449
     9  C    0.063018
    10  C    0.047637
    11  C   -0.171248
    12  C    0.140516
    13  C    0.140756
    14  C   -0.171455
    15  C   -0.140861
    16  C    0.124776
    17  C    0.141714
    18  C   -0.171066
    19  O   -0.058996
    20  O   -0.013059
    21  O   -0.011886
    22  O   -0.011882
    23  O   -0.013076
    24  O   -0.058990
 Electronic spatial extent (au):  <R**2>=           8840.2373
 Charge=             -0.0000 electrons
 Dipole moment (field-independent basis, Debye):
    X=             -0.2844    Y=             -5.3667    Z=              0.0005  Tot=              5.3743
 Quadrupole moment (field-independent basis, Debye-Ang):
   XX=           -128.3672   YY=           -107.7307   ZZ=           -142.7363
   XY=              1.0926   XZ=              0.0104   YZ=             -0.0026
 Traceless Quadrupole moment (field-independent basis, Debye-Ang):
   XX=             -2.0891   YY=             18.5474   ZZ=            -16.4582
   XY=              1.0926   XZ=              0.0104   YZ=             -0.0026
 Octapole moment (field-independent basis, Debye-Ang**2):
  XXX=              2.4039  YYY=           -225.9385  ZZZ=             -0.0104  XYY=            -13.6775
  XXY=             13.7863  XXZ=              0.0106  XZZ=             -0.0066  YZZ=             -0.2544
  YYZ=              0.0084  XYZ=              0.0559
 Hexadecapole moment (field-independent basis, Debye-Ang**3):
 XXXX=          -5454.4726 YYYY=          -5089.4151 ZZZZ=           -143.8910 XXXY=             89.4591
 XXXZ=              0.0372 YYYX=            -71.3576 YYYZ=             -0.0341 ZZZX=             -0.0188
 ZZZY=             -0.0094 XXYY=          -1262.7956 XXZZ=           -968.7963 YYZZ=           -963.6857
 XXYZ=             -0.0655 YYXZ=              0.2009 ZZXY=              0.0956
 N-N= 1.930830589516D+03 E-N=-6.528482298342D+03  KE= 1.131909860307D+03
   1 Symmetry operations used in ECPInt.
 ECPInt:  NShTT=   16290 NPrTT=   61074 LenC2=   14087 LenP2D=   35828.
 LDataN:  DoStor=T MaxTD1= 5 Len=  102
 Calling FoFJK, ICntrl=      2127 FMM=F ISym2X=0 I1Cent= 0 IOpClX= 0 NMat=1 NMatS=1 NMatT=0.
 ***** Axes restored to original set *****
 -------------------------------------------------------------------
 Center     Atomic                   Forces (Hartrees/Bohr)
 Number     Number              X              Y              Z
 -------------------------------------------------------------------
      1        6           0.001234627   -0.002956160   -0.000013757
      2        6           0.000213399    0.005409745    0.000031045
      3        6           0.006561926    0.009775017    0.000075271
      4        6          -0.012198828   -0.000185173   -0.000032391
      5        6          -0.004343024    0.001855810   -0.000002628
      6        6          -0.001580130   -0.002275988   -0.000017849
      7        6           0.007112313   -0.010121978   -0.000040074
      8        6          -0.012337016    0.001080741   -0.000024561
      9        6           0.005145836    0.010532043    0.000078392
     10        6           0.005906205   -0.010688879   -0.000045916
     11        6          -0.000586897   -0.005220459   -0.000032770
     12        6           0.002696373    0.000711468    0.000012149
     13        6          -0.000721696    0.002740155    0.000015324
     14        6          -0.004253728   -0.003163515   -0.000025572
     15        6           0.004553758    0.003021742    0.000034369
     16        6          -0.003143663   -0.000484534   -0.000010951
     17        6          -0.001126349   -0.002462084   -0.000013928
     18        6           0.003753146   -0.002984661   -0.000007253
     19        8           0.014514613   -0.005704102    0.000006616
     20        8           0.014134056    0.007030025    0.000079400
     21        8          -0.001247018    0.016330852    0.000087440
     22        8           0.014770088    0.007067461    0.000076220
     23        8          -0.000781526    0.015845844    0.000096956
     24        8          -0.012140612    0.009842748   -0.000000107
     25        1           0.005271965    0.003112916    0.000031766
     26        1          -0.005550827   -0.003021353   -0.000032152
     27        1           0.005398428   -0.003125726   -0.000004728
     28        1          -0.005407125    0.003128417    0.000007198
     29        1           0.000138235    0.006178009    0.000038418
     30        1           0.000114627   -0.006337842   -0.000039893
     31        1          -0.012082792   -0.004285956   -0.000056766
     32        1          -0.004465824   -0.012122120   -0.000080966
     33        1           0.009295151   -0.009385377   -0.000037141
     34        1          -0.012762119    0.003427875   -0.000006353
     35        1          -0.008320662   -0.009918377   -0.000086006
     36        1           0.002235090   -0.012646584   -0.000058803
 -------------------------------------------------------------------
 Cartesian Forces:  Max     0.016330852 RMS     0.005980848

 GradGradGradGradGradGradGradGradGradGradGradGradGradGradGradGradGradGrad
 Berny optimization.
 FormGI is forming the generalized inverse of G from B-inverse, IUseBI=4.
 Internal  Forces:  Max     0.015180867 RMS     0.004768462
 Search for a local minimum.
 Step number   1 out of a maximum of  205
 All quantities printed in internal units (Hartrees-Bohrs-Radians)
 Mixed Optimization -- RFO/linear search
 Second derivative matrix not updated -- first step.
 ITU=  0
     Eigenvalues ---    0.01422   0.01432   0.01547   0.01595   0.01597
     Eigenvalues ---    0.01604   0.01617   0.01690   0.01698   0.01886
     Eigenvalues ---    0.01914   0.01916   0.01938   0.01945   0.01946
     Eigenvalues ---    0.01996   0.02008   0.02008   0.02021   0.02027
     Eigenvalues ---    0.02040   0.02040   0.02041   0.02041   0.02050
     Eigenvalues ---    0.02052   0.02095   0.02124   0.02124   0.02213
     Eigenvalues ---    0.02214   0.02227   0.02227   0.16000   0.16000
     Eigenvalues ---    0.16000   0.16000   0.16000   0.16000   0.16000
     Eigenvalues ---    0.16000   0.16000   0.16000   0.16000   0.16000
     Eigenvalues ---    0.23069   0.23069   0.23102   0.23943   0.23968
     Eigenvalues ---    0.23974   0.25000   0.25000   0.25000   0.25000
     Eigenvalues ---    0.25000   0.25000   0.25000   0.25000   0.25000
     Eigenvalues ---    0.25000   0.25000   0.25000   0.33597   0.33599
     Eigenvalues ---    0.33609   0.33611   0.33943   0.33944   0.34597
     Eigenvalues ---    0.34684   0.36581   0.37866   0.37998   0.38561
     Eigenvalues ---    0.39784   0.39787   0.39812   0.41023   0.41217
     Eigenvalues ---    0.41386   0.42144   0.42146   0.42147   0.45544
     Eigenvalues ---    0.45954   0.45961   0.46526   0.47025   0.47048
     Eigenvalues ---    0.50288   0.50293   0.51515   0.51515   0.52309
     Eigenvalues ---    0.52310   0.52574   0.52575   0.52830   0.52842
     Eigenvalues ---    0.53037   0.53042
 RFO step:  Lambda=-9.64761583D-03 EMin= 1.42161418D-02
 Linear search not attempted -- first point.
 Iteration  1 RMS(Cart)=  0.02420280 RMS(Int)=  0.00004798
 Iteration  2 RMS(Cart)=  0.00006611 RMS(Int)=  0.00000076
 Iteration  3 RMS(Cart)=  0.00000001 RMS(Int)=  0.00000076
 Variable       Old X    -DE/DX   Delta X   Delta X   Delta X     New X
                                 (Linear)    (Quad)   (Total)
    R1        2.62701  -0.01325   0.00000  -0.02758  -0.02758   2.59943
    R2        2.68876  -0.01116   0.00000  -0.02622  -0.02622   2.66254
    R3        2.56919  -0.01091   0.00000  -0.02021  -0.02021   2.54899
    R4        2.68483  -0.00800   0.00000  -0.01835  -0.01835   2.66649
    R5        2.07425  -0.00611   0.00000  -0.01750  -0.01750   2.05675
    R6        2.70606  -0.01512   0.00000  -0.03600  -0.03600   2.67006
    R7        2.76565  -0.00236   0.00000  -0.00633  -0.00633   2.75931
    R8        2.68909  -0.00827   0.00000  -0.01910  -0.01910   2.66998
    R9        2.76342  -0.00207   0.00000  -0.00547  -0.00548   2.75795
   R10        2.62333  -0.01284   0.00000  -0.02654  -0.02654   2.59679
   R11        2.08012  -0.00631   0.00000  -0.01826  -0.01826   2.06186
   R12        2.59570  -0.01017   0.00000  -0.01983  -0.01983   2.57587
   R13        2.69929  -0.01518   0.00000  -0.03580  -0.03580   2.66349
   R14        2.68548  -0.00777   0.00000  -0.01788  -0.01788   2.66760
   R15        2.76544  -0.00215   0.00000  -0.00575  -0.00575   2.75969
   R16        2.68535  -0.00767   0.00000  -0.01761  -0.01761   2.66774
   R17        2.70595  -0.01508   0.00000  -0.03588  -0.03588   2.67007
   R18        2.68471  -0.00791   0.00000  -0.01813  -0.01813   2.66658
   R19        2.68923  -0.00829   0.00000  -0.01916  -0.01916   2.67007
   R20        2.63096  -0.01324   0.00000  -0.02775  -0.02775   2.60321
   R21        2.07994  -0.00624   0.00000  -0.01804  -0.01804   2.06190
   R22        2.69672  -0.01095   0.00000  -0.02605  -0.02605   2.67068
   R23        2.57102  -0.01053   0.00000  -0.01957  -0.01957   2.55145
   R24        2.63080  -0.01314   0.00000  -0.02751  -0.02751   2.60329
   R25        2.57112  -0.01059   0.00000  -0.01968  -0.01968   2.55144
   R26        2.07992  -0.00624   0.00000  -0.01805  -0.01805   2.06187
   R27        2.62686  -0.01313   0.00000  -0.02731  -0.02731   2.59955
   R28        2.07426  -0.00617   0.00000  -0.01767  -0.01767   2.05659
   R29        2.68878  -0.01120   0.00000  -0.02632  -0.02632   2.66246
   R30        2.56915  -0.01085   0.00000  -0.02008  -0.02008   2.54907
   R31        2.62340  -0.01289   0.00000  -0.02665  -0.02665   2.59675
   R32        2.59575  -0.01017   0.00000  -0.01985  -0.01985   2.57590
   R33        2.08015  -0.00633   0.00000  -0.01831  -0.01831   2.06184
   R34        1.84052  -0.01277   0.00000  -0.02386  -0.02386   1.81666
   R35        1.85067  -0.01285   0.00000  -0.02448  -0.02448   1.82619
   R36        1.84303  -0.01314   0.00000  -0.02466  -0.02466   1.81837
   R37        1.84305  -0.01314   0.00000  -0.02466  -0.02466   1.81839
   R38        1.85066  -0.01286   0.00000  -0.02451  -0.02451   1.82615
   R39        1.84054  -0.01279   0.00000  -0.02389  -0.02389   1.81665
    A1        2.07342   0.00064   0.00000   0.00195   0.00195   2.07537
    A2        2.11759  -0.00091   0.00000  -0.00326  -0.00326   2.11434
    A3        2.09217   0.00027   0.00000   0.00131   0.00131   2.09348
    A4        2.13325  -0.00068   0.00000  -0.00278  -0.00278   2.13047
    A5        2.03240  -0.00004   0.00000  -0.00081  -0.00081   2.03159
    A6        2.11753   0.00071   0.00000   0.00359   0.00359   2.12112
    A7        2.07340   0.00013   0.00000   0.00116   0.00116   2.07456
    A8        2.11944  -0.00019   0.00000  -0.00133  -0.00133   2.11811
    A9        2.09035   0.00005   0.00000   0.00017   0.00017   2.09052
   A10        2.06332   0.00024   0.00000   0.00157   0.00157   2.06489
   A11        2.09607  -0.00006   0.00000  -0.00019  -0.00019   2.09588
   A12        2.12379  -0.00018   0.00000  -0.00138  -0.00137   2.12242
   A13        2.12642  -0.00058   0.00000  -0.00231  -0.00231   2.12411
   A14        2.10093   0.00067   0.00000   0.00340   0.00340   2.10433
   A15        2.05583  -0.00009   0.00000  -0.00108  -0.00108   2.05475
   A16        2.09656   0.00024   0.00000   0.00042   0.00042   2.09697
   A17        1.99861   0.00085   0.00000   0.00350   0.00350   2.00211
   A18        2.18802  -0.00108   0.00000  -0.00392  -0.00392   2.18410
   A19        2.09663   0.00008   0.00000   0.00025   0.00025   2.09688
   A20        2.12381  -0.00049   0.00000  -0.00242  -0.00241   2.12140
   A21        2.06274   0.00041   0.00000   0.00216   0.00216   2.06490
   A22        2.09717  -0.00008   0.00000  -0.00035  -0.00035   2.09682
[...]
 70,0.00000079,-0.00003854,-0.00220354,-0.00130085,-0.00191489,0.000011
 36,0.00000251,0.00026553,0.00000175,0.00000108,-0.00001366,-0.00000003
 ,0.00000318,-0.00000377,-0.00000264,0.00000128,-0.00001317,-0.00000272
 ,-0.00000131,-0.00005930,0.00000185,-0.00000045,-0.00035394,0.00000784
 ,-0.00000757,0.00044367,0.,-0.00000041,0.00004133,-0.00000014,0.000000
 16,0.00000524,-0.00000009,0.00000010,0.00000886,0.00000036,-0.00000069
 ,0.00012260,0.00243414,0.00143265,0.00250573,0.00577634,0.04312356,0.0
 0027440,-0.00662072,0.00306393,-0.00000464,0.00162479,0.00061013,0.000
 00304,-0.00044413,-0.00019360,-0.00000236,0.00057887,-0.00043145,0.000
 00111,-0.00375544,0.00991363,0.00004216,-0.00041786,0.00034243,0.00000
 068,0.00014604,0.00007929,0.00000121,-0.00009428,-0.00007787,-0.000000
 80,-0.00019981,-0.00011859,-0.00000093,-0.00003728,-0.00011463,-0.0000
 0069,0.00025823,0.00006726,0.00000106,0.00002759,0.00024778,0.00000152
 ,-0.00015515,-0.00006326,-0.00000079,0.00004323,-0.00004333,-0.0000001
 3,-0.00011547,0.00005291,-0.00000006,-0.00017046,-0.00003144,-0.000000
 75,0.00010974,0.00005856,0.00000073,0.00338498,-0.00090986,0.00000820,
 -0.07355818,-0.13622659,-0.00098356,-0.00019682,-0.00010239,-0.0000011
 0,-0.00000229,-0.00033384,-0.00000194,0.00011427,-0.00007238,-0.000000
 05,0.00014393,0.00003395,0.00000066,-0.00006514,0.00003098,0.00000190,
 -0.00007828,0.00003536,-0.00000041,-0.00000336,0.00004469,0.00000022,0
 .00001175,-0.00000225,0.00000002,0.00000505,-0.00001103,-0.00000006,-0
 .00008588,-0.00002223,-0.00000039,0.00147478,-0.00239795,-0.00000699,0
 .07234440,0.00197789,-0.03138891,-0.00016289,0.00275640,0.00180699,0.0
 0001066,-0.00022314,-0.00114025,-0.00001797,-0.00029752,0.00084862,0.0
 0000420,0.00010951,-0.00232025,-0.00000915,-0.00431472,0.00578035,0.00
 001124,0.00004489,-0.00004204,-0.00000041,-0.00009706,-0.00009188,-0.0
 0000014,-0.00009568,0.00007991,0.00000002,0.00027249,-0.00025277,-0.00
 000002,0.00003837,0.00005981,0.00000065,-0.00027955,-0.00012888,-0.000
 00165,0.00006425,-0.00025975,-0.00000138,0.00004783,0.00002870,0.00000
 033,-0.00008109,-0.00009700,-0.00000078,0.00032497,-0.00026882,-0.0000
 0074,0.00019798,0.00036426,0.00000256,-0.00006134,0.00007908,0.0000004
 1,0.00134923,-0.00169649,0.00000242,-0.08438595,-0.49350390,-0.0030755
 3,0.00025306,0.00016298,0.00000178,-0.00001162,0.00028802,0.00000173,-
 0.00051353,0.00023577,0.00000004,-0.00029055,-0.00017585,-0.00000179,0
 .00007293,0.00020602,0.00000534,-0.00043906,0.00023470,-0.00000069,-0.
 00003582,-0.00007643,-0.00000060,-0.00001871,0.00000998,0.,-0.00000750
 ,0.00002224,0.00000008,0.00000943,-0.00001782,-0.00000007,0.00016511,-
 0.00057909,0.00000248,0.08336590,0.52184258,0.00003501,-0.00004682,-0.
 00245399,-0.00000637,0.00001138,0.00133756,-0.00000188,-0.00001570,0.0
 0182770,-0.00000296,0.00000456,-0.00001881,0.00000431,-0.00001070,-0.0
 0069495,-0.00004076,0.00005178,0.00173412,-0.00000105,0.00000046,0.000
 04643,0.00000018,0.00000037,-0.00011597,-0.00000093,0.00000008,0.00002
 971,0.00000135,-0.00000116,-0.00011248,0.00000021,0.00000021,-0.000032
 33,-0.00000096,-0.00000068,0.00001961,0.00000045,-0.00000084,0.0000046
 4,-0.00000015,0.,-0.00000448,-0.00000033,-0.00000067,-0.00000369,0.000
 00154,-0.00000151,0.00001288,0.00000058,0.00000188,0.00002952,0.000000
 03,0.00000076,-0.00002239,0.00002154,-0.00000387,-0.00146606,-0.000681
 91,-0.00322186,-0.00622196,0.00000098,0.00000077,-0.00001908,-0.000000
 04,0.00000080,-0.00001201,-0.00000263,0.00000128,-0.00001810,-0.000001
 24,-0.00000084,-0.00001722,0.00000215,0.00000523,-0.00066857,-0.000003
 17,0.00000064,0.00014040,-0.00000025,-0.00000038,0.00001033,-0.0000000
 8,0.00000005,0.00000068,-0.00000004,0.00000007,0.00000426,-0.00000018,
 -0.00000015,-0.00000232,0.00000778,-0.00000496,-0.00090809,0.00066854,
 0.00322999,0.00753249,0.00048784,-0.00017394,0.00000039,0.00000934,0.0
 0018342,0.00000120,0.00035325,-0.00009525,0.00000082,-0.00005390,0.000
 12245,0.00000043,-0.00000024,0.00000507,0.00000004,-0.00009994,-0.0003
 0971,-0.00000212,-0.00080087,0.00000359,-0.00000031,0.00068024,0.00031
 080,0.00000323,-0.00024400,-0.00019762,-0.00000188,0.00010697,0.000077
 54,0.00000082,0.00594304,0.00297068,0.00003757,-0.04052267,0.02503618,
 0.00003750,-0.00207641,-0.00422025,-0.00003734,-0.00109999,0.00115685,
 0.00000086,0.00008062,0.00010324,0.00000085,-0.00022493,0.00021809,0.0
 0000072,-0.00025728,-0.00018413,-0.00000184,0.00004563,-0.00007768,-0.
 00000028,-0.00001955,0.00039943,0.00000232,-0.00042887,0.00027438,0.00
 000053,-0.33822552,0.21604142,0.00034291,0.00071912,-0.00145501,-0.000
 00556,0.00027249,-0.00012343,0.00000008,0.00041378,0.00022164,0.000002
 55,0.00009975,-0.00009263,-0.00000062,0.00002230,0.00003241,0.00000023
 ,0.00010778,-0.00167575,-0.00001110,-0.00026064,-0.00026450,-0.0000012
 8,-0.00001831,-0.00001917,-0.00000029,0.00001428,0.00003461,0.00000023
 ,-0.00001219,-0.00006189,-0.00000044,0.00005597,-0.00005613,-0.0000002
 4,0.37498277,0.00023203,-0.00002749,0.00000054,-0.00016430,-0.00002161
 ,-0.00000033,-0.00007563,0.00021116,0.00000179,-0.00017624,0.00013591,
 0.00000002,0.00006127,-0.00001249,0.00000013,-0.00009242,-0.00011165,-
 0.00000098,-0.00013672,-0.00100300,-0.00000222,0.00001002,-0.00061648,
 -0.00000461,0.00030018,-0.00000840,0.00000070,0.00000056,-0.00007967,-
 0.00000032,-0.00454838,0.00197187,0.00000630,-0.02451973,0.01299031,0.
 00001481,-0.00520212,-0.00299889,-0.00004637,0.00038040,0.00104939,0.0
 0000116,-0.00002741,0.00005844,0.00000031,-0.00005146,0.00006237,0.000
 00040,-0.00000002,-0.00010718,-0.00000061,-0.00004457,0.00001248,0.,0.
 00003584,0.00019386,0.00000133,-0.00005236,0.00008839,0.00000068,0.269
 88544,-0.24205408,-0.00064076,0.00086352,0.00010225,0.00000513,0.00012
 480,-0.00005347,0.00000011,0.00000704,0.00000358,0.00000005,0.00009995
 ,-0.00013432,-0.00000126,0.00001077,0.00002496,0.00000012,0.00145399,-
 0.00150617,-0.00000808,-0.00014472,-0.00004965,0.00000143,-0.00001153,
 -0.00001153,-0.00000037,-0.00001239,0.00000089,-0.00000006,-0.00001287
 ,-0.00002857,-0.00000029,0.00001922,-0.00003973,-0.00000032,-0.2383177
 7,0.23172405,0.00000275,-0.00000061,-0.00000803,-0.00000080,0.00000066
 ,-0.00004481,0.00000091,0.00000174,-0.00012953,-0.00000133,0.00000086,
 0.00004765,0.00000037,-0.00000003,-0.00000533,-0.00000085,-0.00000159,
 0.00001231,-0.00000110,-0.00000182,-0.00069387,0.00000146,-0.00000377,
 0.00017289,0.00000104,-0.00000070,0.00001662,0.00000037,-0.00000011,-0
 .00002484,-0.00000669,0.00002722,-0.00125120,-0.00025418,0.00015296,-0
 .00114228,-0.00004316,-0.00004360,0.00241445,-0.00000371,0.00000332,0.
 00103052,0.00000008,0.00000068,-0.00000725,-0.00000084,0.00000115,-0.0
 0003034,-0.00000071,-0.00000112,-0.00000341,-0.00000011,-0.00000009,-0
 .00000970,0.00000020,0.00000235,-0.00001615,-0.00000137,0.00000159,-0.
 00005235,0.00065985,-0.00079086,-0.00528082,0.00000809,-0.00000136,-0.
 00035825,0.00000152,-0.00000059,-0.00001169,0.00000121,0.00000066,-0.0
 0000315,0.00000050,-0.00000181,0.00013206,0.00000010,0.00000019,0.0000
 0875,0.00000731,-0.00001678,0.00055260,-0.00000057,0.00000110,-0.00036
 122,-0.00000025,-0.00000039,0.00004604,-0.00000005,0.00000007,0.000005
 37,-0.00000015,-0.00000043,0.00001553,0.00000020,-0.00000053,0.0000248
 5,-0.00037015,0.00067081,0.00480239,-0.00007945,0.00003126,0.00000004,
 0.00003113,-0.00005526,-0.00000022,-0.00011012,0.00037648,0.00000186,-
 0.00006728,-0.00009870,-0.00000071,0.00007296,-0.00002896,0.00000006,-
 0.00006447,0.00010946,0.00000047,-0.00043885,-0.00062569,-0.00000541,-
 0.00089817,-0.00018945,-0.00000168,0.00032210,-0.00009791,0.00000070,0
 .00011241,-0.00008166,-0.00000028,-0.00013515,0.00092925,0.00000223,0.
 00127747,-0.00330083,-0.00002263,-0.00030944,-0.00165668,-0.00000744,0
 .00362092,-0.00586276,-0.00002087,-0.00002462,-0.00018758,-0.00000106,
 0.00007363,-0.00000265,0.00000022,0.00006416,0.00000061,0.00000015,-0.
 00003818,0.00004002,0.00000014,0.00000536,-0.00022490,-0.00000129,0.00
 002554,-0.00001560,0.00000001,0.00050479,0.00073972,0.00000676,-0.4743
 4409,0.19256548,-0.00017937,-0.00013322,0.00011563,0.00000045,-0.00004
 515,0.00002083,0.00000003,-0.00000008,-0.00000123,-0.00000014,-0.00000
 548,-0.00002361,-0.00000017,0.00007496,0.00004591,0.00000148,-0.001016
 78,0.00081158,0.00000037,-0.00007528,0.00000636,-0.00000055,0.00000575
 ,0.00000128,0.,0.00002231,0.00002084,0.00000015,-0.00001879,0.00000841
 ,-0.00000003,0.00005957,0.00014053,0.00000062,0.47152466,0.00030108,-0
 .00008296,0.00000055,0.00007532,0.00010713,0.00000089,-0.00012206,-0.0
 0014142,-0.00000128,-0.00002176,0.00009551,0.00000065,-0.00006208,-0.0
 0001517,-0.00000021,-0.00007529,-0.00029976,-0.00000194,-0.00032668,0.
 00050193,0.00000105,-0.00005396,-0.00090946,-0.00000143,-0.00011131,0.
 00024172,0.00000187,0.00021707,-0.00003132,0.00000015,0.00170914,0.000
 08785,-0.00000080,-0.00230603,-0.00635875,-0.00005807,0.04789205,-0.02
 723663,-0.00001965,0.00164672,0.00430761,0.00003731,0.00016296,0.00000
 354,0.00000074,-0.00040979,0.00038862,0.00000117,-0.00021666,-0.000275
 62,-0.00000234,-0.00001655,0.00002555,0.00000015,-0.00001000,0.0004119
 3,0.00000240,-0.00026396,0.00019375,0.00000045,-0.00157445,0.00031218,
 -0.00000044,0.13871901,-0.10594024,-0.00020446,0.00044245,-0.00020741,
 0.00000034,0.00038534,0.00021941,0.00000252,-0.00000834,-0.00002876,-0
 .00000046,0.00002351,0.00002052,0.00000015,-0.00007390,-0.00038635,-0.
 00000035,-0.00231711,-0.00038200,-0.00001197,-0.00018947,0.00005652,-0
 .00000098,0.00002307,0.00004142,0.00000026,-0.00002149,-0.00006491,-0.
 00000051,0.00004077,-0.00005339,-0.00000025,0.00017786,0.00023965,0.00
 000113,-0.18349637,0.13519064,0.00000164,-0.00000023,-0.00003029,0.000
 00055,0.00000053,-0.00000729,-0.00000107,0.00000012,0.00001660,-0.0000
 0024,0.00000042,-0.00002482,-0.00000014,-0.00000011,-0.00000968,-0.000
 00061,-0.00000144,-0.00000341,-0.00000362,0.00000020,0.00017285,-0.000
 00090,-0.00000178,-0.00069275,0.00000061,0.00000190,-0.00012942,0.0000
 0145,-0.00000069,0.00004777,0.00000683,-0.00000298,0.00103055,-0.00001
 679,-0.00006086,0.00241395,0.00028431,-0.00015839,-0.00113247,0.000023
 34,0.00001631,-0.00125067,0.00000102,-0.00000024,-0.00004473,-0.000002
 18,0.00000232,-0.00000810,-0.00000113,-0.00000169,0.00001235,-0.000000
 19,0.00000030,-0.00000537,-0.00000004,0.00000182,-0.00000316,-0.000001
 45,0.00000117,-0.00001169,-0.00000685,0.00000600,-0.00035769,-0.000496
 45,-0.00005365,-0.00527163,0.00000238,-0.00000059,-0.00005239,0.000002
 19,0.00000144,-0.00001614,-0.00000018,-0.00000044,0.00004602,0.0000001
 1,0.00000002,0.00000538,0.00000078,-0.00000004,-0.00036092,-0.00001804
 ,-0.00000323,0.00055204,-0.00000170,-0.00000043,0.00013255,0.00000013,
 0.00000020,0.00000874,-0.00000010,-0.00000039,0.00001196,0.00000016,-0
 .00000034,0.00000852,0.00000084,0.00000102,0.00013168,0.00022625,0.000
 25421,0.00478126,-0.00039421,0.00016687,-0.00000018,-0.00000966,-0.000
 11100,-0.00000066,0.00011208,0.00002190,0.00000036,-0.00030734,0.00021
 151,0.00000067,0.00008723,-0.00007303,-0.00000010,0.00016278,0.0003871
 5,0.00000263,-0.00002601,-0.00019473,-0.00000087,-0.00029889,0.0001120
 9,-0.00000036,-0.00063471,-0.00150398,-0.00001588,0.00074547,0.0003753
 5,0.00000439,-0.00000971,0.00013011,0.00000075,-0.00032360,-0.00013519
 ,-0.00000171,0.00005690,-0.00039417,-0.00000222,0.00006747,0.00009917,
 0.00000087,-0.00274059,0.00495388,0.00001790,-0.04188302,-0.02501963,-
 0.00025759,0.00104736,-0.00153709,-0.00001099,-0.00148145,-0.00105700,
 -0.00000852,0.00001171,-0.00036594,-0.00000206,0.00045828,-0.00031891,
 -0.00000051,0.00036553,0.00019743,0.00000221,0.00001049,0.00037083,0.0
 0000227,-0.29579802,-0.21063426,-0.00205042,-0.00079196,-0.00026815,0.
 00000083,0.00002587,0.00000425,0.00000009,-0.00002772,0.00004189,0.000
 00017,0.00001958,-0.00001429,-0.00000003,-0.00006260,-0.00007066,-0.00
 000063,0.00009299,0.00016311,0.00000316,0.00033141,-0.00020858,-0.0000
 0070,0.00000529,0.00009147,0.00000049,-0.00003546,0.00008754,0.0000003
 8,-0.00006608,-0.00001847,-0.00000032,-0.00000069,-0.00008834,-0.00000
 059,0.34043433,-0.00010161,0.00000855,-0.00000031,-0.00007169,-0.00004
 268,-0.00000043,0.00003757,-0.00012554,-0.00000081,-0.00017378,-0.0001
 4485,-0.00000069,0.00004381,0.00009828,0.00000084,0.00015420,0.0000294
 9,0.00000042,-0.00001766,0.00007957,0.00000110,0.00040353,-0.00015837,
 -0.00000009,-0.00064865,0.00111257,-0.00000607,0.00046560,-0.00032829,
 -0.00000049,0.00001868,-0.00011486,-0.00000060,0.00004867,0.00009061,0
 .00000064,-0.00004725,0.00007299,0.00000018,-0.00005429,-0.00004815,-0
 .00000025,0.00520081,-0.00206556,-0.00000500,0.01634041,0.01583887,0.0
 0015379,0.01198225,0.00099959,0.00002910,-0.00154341,-0.00025078,-0.00
 000203,-0.00004037,-0.00004138,-0.00000026,0.00011898,-0.00010451,-0.0
 0000017,-0.00012439,-0.00007915,-0.00000074,0.00001503,-0.00004459,-0.
 00000011,-0.26275538,-0.27229462,-0.00230083,-0.00208432,-0.00344536,-
 0.00001989,0.00000082,0.00000109,-0.00000002,0.00000947,-0.00007389,-0
 .00000038,0.00000187,0.00000227,0.00000001,0.00001193,-0.00001597,-0.0
 0000012,0.00012930,0.00005400,0.00000463,0.00026168,-0.00016104,-0.000
 00105,0.00002891,0.00000692,0.00000001,0.00002100,0.00002546,0.0000001
 5,0.00001397,-0.00000595,-0.00000005,-0.00001215,0.00001695,-0.0000000
 8,0.23476811,0.26112168,-0.00000176,0.00000047,0.00001287,-0.00000044,
 -0.00000056,-0.00000368,0.00000046,-0.00000084,0.00002976,-0.00000160,
 0.00000043,-0.00011273,0.00000057,0.00000050,-0.00002236,0.00000128,0.
 00000111,0.00002953,0.00000015,0.00000056,-0.00011601,0.00000135,-0.00
 000090,0.00004645,-0.00001079,-0.00000855,0.00182557,0.00000503,-0.000
 00074,-0.00001780,0.00000010,-0.00000027,-0.00000445,-0.00000065,0.000
 00012,0.00000460,-0.00000018,-0.00000081,0.00001970,-0.00000003,0.0000
 0020,-0.00003236,0.00001886,-0.00000598,0.00134261,-0.00001510,0.00003
 694,-0.00245351,0.00006871,-0.00000844,0.00172845,-0.00001143,-0.00000
 026,-0.00069439,-0.00000016,-0.00000119,-0.00001722,0.00000207,-0.0000
 0143,-0.00001810,0.00000034,0.00000017,-0.00001201,0.00000017,0.000000
 92,-0.00001910,-0.00235634,-0.00215444,-0.00625201,-0.00000901,-0.0000
 1313,-0.00148295,0.00000007,0.,0.00000426,-0.00000002,-0.00000030,-0.0
 0000228,0.00000006,-0.00000003,0.00000069,-0.00000014,-0.00000035,0.00
 001039,0.00000294,0.00000474,-0.00066889,0.00000206,-0.00000237,0.0001
 4023,0.00000013,0.00000019,0.00001883,0.,0.00000034,0.00001000,-0.0000
 0013,-0.00000014,0.00000852,-0.00000014,-0.00000030,0.00002485,0.00231
 346,0.00214935,0.00760465,-0.00030873,0.00004081,-0.00000068,0.0000179
 1,0.00002403,0.00000022,0.00003556,-0.00023791,-0.00000138,0.00019568,
 0.00002771,0.00000103,-0.00002061,-0.00013837,-0.00000074,0.00015527,0
 .00041630,0.00000292,-0.00001453,0.00005932,0.00000036,-0.00000388,0.0
 0015786,0.00000087,-0.00013096,0.00045724,0.00000195,-0.00095280,-0.00
 007345,-0.00000202,-0.00002713,0.00002022,0.00000008,-0.00024162,-0.00
 004337,-0.00000092,0.00006366,-0.00021900,-0.00000102,0.00009658,-0.00
 003364,0.00000009,0.00134647,-0.00115719,-0.00000619,-0.00812274,-0.00
 159904,-0.00003813,0.00013679,-0.04636421,-0.00025091,0.00251988,-0.00
 156741,-0.00000049,0.00004099,-0.00031524,-0.00000156,0.00033131,-0.00
 019811,-0.00000018,0.00022004,0.00012252,0.00000134,0.00000495,0.00026
 649,0.00000162,0.00117759,0.00210659,0.00001567,-0.04852368,0.07499156
 ,0.00027217,0.00002792,-0.00000115,0.00000005,-0.00006294,0.00017615,0
 .00000048,0.00001372,-0.00001154,-0.00000004,-0.00003058,0.00000106,-0
 .00000021,-0.00035236,-0.00015118,-0.00000092,-0.00119664,0.00210501,0
 .00000867,-0.00002095,0.00010220,0.00000032,-0.00004515,0.00006279,0.0
 0000018,-0.00004337,-0.00001644,-0.00000025,0.00000757,-0.00005074,-0.
 00000033,0.00085691,-0.00240165,-0.00000991,0.05284990,-0.00022945,0.0
 0011127,-0.00000006,0.00000157,-0.00006323,-0.00000034,0.00006924,0.00
 008795,0.00000052,-0.00005414,0.00040238,0.00000306,0.00017324,0.00001
 361,0.00000084,0.00005279,0.00029534,0.00000197,0.00007656,-0.00002575
 ,0.00000017,-0.00022318,-0.00019366,-0.00000172,0.00075726,-0.00006824
 ,0.00000044,0.00045424,-0.00058518,0.00000022,0.00000305,0.00013691,0.
 00000088,-0.00025050,-0.00017341,-0.00000170,0.00010453,-0.00022378,-0
 .00000088,0.00007192,0.00001216,0.00000032,-0.00034808,-0.00117026,-0.
 00001341,-0.00073332,0.00156623,-0.00000364,0.00070414,-0.02251516,-0.
 00011448,0.00382819,0.00536538,0.00004669,-0.00002962,-0.00040593,-0.0
 0000211,0.00021647,-0.00018834,-0.00000041,0.00036489,0.00019996,0.000
 00222,-0.00000011,0.00018735,0.00000118,-0.00122323,0.00089672,0.00000
 024,0.02399256,-0.53847085,-0.00286983,0.00001121,0.00000411,0.,-0.000
 01822,-0.00000139,-0.00000078,0.00003258,0.00000410,0.00000008,-0.0000
 1813,0.00000359,-0.00000026,-0.00024067,0.00001069,0.00000150,-0.00083
 963,-0.00042466,-0.00000662,0.00008038,0.00008272,0.00000026,0.0000013
 5,0.00005776,0.00000023,-0.00005875,0.00000075,-0.00000023,-0.00000166
 ,-0.00004828,-0.00000038,-0.00016924,-0.00001334,0.00000502,-0.0265582
 2,0.55513248,-0.00000223,0.00000076,0.00001163,0.00000008,-0.00000035,
 -0.00000568,0.00000040,-0.00000005,0.00004036,0.00000032,0.00000342,-0
 .00014848,0.00000104,-0.00000013,-0.00003850,0.00000070,0.00000303,-0.
 00001866,0.00000052,0.,-0.00002038,-0.00000167,-0.00000098,0.00001911,
 0.00000484,-0.00000133,0.00020673,0.00000220,0.00000110,-0.00058131,0.
 ,0.00000107,-0.00001227,-0.00000221,-0.00000127,-0.00000305,0.00000088
 ,-0.00000183,-0.00002690,0.00000072,0.00000003,-0.00000656,-0.00000243
 ,-0.00001693,0.00090222,-0.00003281,-0.00000751,0.00201322,0.00000373,
 -0.00026092,-0.00175576,0.00002987,0.00003060,-0.00081405,0.00000010,-
 0.00000298,-0.00005931,0.00000223,-0.00000159,-0.00001316,0.00000293,0
 .00000164,-0.00000376,0.00000005,0.00000196,-0.00001366,-0.00000660,0.
 00000820,0.00027213,-0.00000277,-0.00270900,-0.00199026,0.00000011,-0.
 00000002,0.00000886,-0.00000061,-0.00000027,0.00012284,0.00000023,-0.0
 0000003,0.00000523,-0.00000031,-0.00000019,0.00004141,-0.00000164,0.00
 000159,-0.00035419,-0.00000871,0.00000065,0.00044107,0.00000022,0.0000
 0033,0.00007620,-0.00000017,0.00000041,0.00001883,-0.00000052,-0.00000
 011,0.00001197,-0.00000003,-0.00000053,0.00001553,0.00000371,0.0000002
 4,-0.00093209,0.00000785,0.00295101,0.00259066\\-0.00004522,0.00000617
 ,-0.00000016,0.00000149,-0.00006947,-0.00000059,0.00008393,0.00007626,
 0.00000072,-0.00012381,0.00000282,-0.00000041,-0.00000745,0.00002816,0
 .00000011,-0.00002253,0.00007586,0.00000040,0.00002264,-0.00007937,0.0
 0000005,-0.00005210,-0.00001022,-0.00000028,0.00003104,0.00003271,0.00
 000026,0.00000272,-0.00003994,0.00000005,-0.00003680,-0.00002779,-0.00
 000056,-0.00006932,-0.00009240,-0.00000062,0.00006154,-0.00007124,-0.0
 0000004,0.00006635,0.00010259,0.00000059,0.00000789,0.00005304,0.00000
 036,0.00005609,-0.00001481,-0.00000048,0.00007663,0.00008630,0.0000000
 8,-0.00008939,-0.00003490,0.00000002,-0.00000691,-0.00005316,-0.000000
 06,0.00005966,-0.00003455,0.00000019,0.00009553,-0.00002188,0.00000009
 ,-0.00004294,0.00007658,0.00000022,-0.00006336,-0.00000387,-0.00000023
 ,-0.00004595,-0.00014597,0.00000149,0.00003409,0.00003881,0.00000014,0
 .00002742,0.00000583,-0.00000024,-0.00000610,-0.00001894,0.00000013,0.
 00004771,0.00000125,0.,-0.00004393,-0.00010153,-0.00000078,-0.00002341
 ,0.00004905,0.00000075,0.00006466,0.00002837,0.00000012,-0.00006404,0.
 00002544,-0.00000020,-0.00004694,0.00004455,0.00000018,0.00002503,0.00
 000062,0.00000006,0.00004242,0.00005862,0.00000040,-0.00001665,0.00002
 705,-0.00000178\\\@


 CONFIDENCE: THAT QUIET ASSURED FEELING YOU HAVE
 JUST BEFORE YOU FALL FLAT ON YOUR FACE.
 Job cpu time:       0 days  2 hours 33 minutes 39.0 seconds.
 Elapsed time:       0 days  0 hours  5 minutes 30.2 seconds.
 File lengths (MBytes):  RWF=    744 Int=      0 D2E=      0 Chk=     15 Scr=      2
 Normal termination of Gaussian 16 at Fri Jan  7 21:32:29 2022.
