 Entering Gaussian System, Link 0=g16
 Input=hhtc.gjf
 Output=hhtc.log
 Initial command:
 /curc/sw/gaussian/16/g16/l1.exe "/rc_scratch/xuwa0145/Gau-135459.inp" -scrdir="/rc_scratch/xuwa0145/"
 Entering Link 1 = /curc/sw/gaussian/16/g16/l1.exe PID=    135461.
  
 Copyright (c) 1988,1990,1992,1993,1995,1998,2003,2009,2016,
            Gaussian, Inc.  All Rights Reserved.
  
 This is part of the Gaussian(R) 16 program.  It is based on
 the Gaussian(R) 09 system (copyright 2009, Gaussian, Inc.),
 the Gaussian(R) 03 system (copyright 2003, Gaussian, Inc.),
 the Gaussian(R) 98 system (copyright 1998, Gaussian, Inc.),
 the Gaussian(R) 94 system (copyright 1995, Gaussian, Inc.),
 the Gaussian 92(TM) system (copyright 1992, Gaussian, Inc.),
 the Gaussian 90(TM) system (copyright 1990, Gaussian, Inc.),
 the Gaussian 88(TM) system (copyright 1988, Gaussian, Inc.),
 the Gaussian 86(TM) system (copyright 1986, Carnegie Mellon
 University), and the Gaussian 82(TM) system (copyright 1983,
 Carnegie Mellon University). Gaussian is a federally registered
 trademark of Gaussian, Inc.
  
 This software contains proprietary and confidential information,
 including trade secrets, belonging to Gaussian, Inc.
  
 This software is provided under written license and may be
 used, copied, transmitted, or stored only in accord with that
 written license.
  
 The following legend is applicable only to US Government
 contracts under FAR:
  
                    RESTRICTED RIGHTS LEGEND
  
 Use, reproduction and disclosure by the US Government is
 subject to restrictions as set forth in subparagraphs (a)
 and (c) of the Commercial Computer Software - Restricted
 Rights clause in FAR 52.227-19.
  
 Gaussian, Inc.
 340 Quinnipiac St., Bldg. 40, Wallingford CT 06492
  
  
 ---------------------------------------------------------------
 Warning -- This program may not be used in any manner that
 competes with the business of Gaussian, Inc. or will provide
 assistance to any competitor of Gaussian, Inc.  The licensee
 of this program is prohibited from giving any competitor of
 Gaussian, Inc. access to this program.  By using this program,
 the user acknowledges that Gaussian, Inc. is engaged in the
 business of creating and licensing software in the field of
 computational chemistry and represents and warrants to the
 licensee that it is not a competitor of Gaussian, Inc. and that
 it will not use this program in any manner prohibited above.
 ---------------------------------------------------------------
  

 Cite this work as:
 Gaussian 16, Revision A.03,
 M. J. Frisch, G. W. Trucks, H. B. Schlegel, G. E. Scuseria, 
 M. A. Robb, J. R. Cheeseman, G. Scalmani, V. Barone, 
 G. A. Petersson, H. Nakatsuji, X. Li, M. Caricato, A. V. Marenich, 
 J. Bloino, B. G. Janesko, R. Gomperts, B. Mennucci, H. P. Hratchian, 
 J. V. Ortiz, A. F. Izmaylov, J. L. Sonnenberg, D. Williams-Young, 
 F. Ding, F. Lipparini, F. Egidi, J. Goings, B. Peng, A. Petrone, 
 T. Henderson, D. Ranasinghe, V. G. Zakrzewski, J. Gao, N. Rega, 
 G. Zheng, W. Liang, M. Hada, M. Ehara, K. Toyota, R. Fukuda, 
 J. Hasegawa, M. Ishida, T. Nakajima, Y. Honda, O. Kitao, H. Nakai, 
 T. Vreven, K. Throssell, J. A. Montgomery, Jr., J. E. Peralta, 
 F. Ogliaro, M. J. Bearpark, J. J. Heyd, E. N. Brothers, K. N. Kudin, 
 V. N. Staroverov, T. A. Keith, R. Kobayashi, J. Normand, 
 K. Raghavachari, A. P. Rendell, J. C. Burant, S. S. Iyengar, 
 J. Tomasi, M. Cossi, J. M. Millam, M. Klene, C. Adamo, R. Cammi, 
 J. W. Ochterski, R. L. Martin, K. Morokuma, O. Farkas, 
 J. B. Foresman, and D. J. Fox, Gaussian, Inc., Wallingford CT, 2016.
 
 ******************************************
 Gaussian 16:  ES64L-G16RevA.03 25-Dec-2016
                 7-Jan-2022 
 ******************************************
 %chk=ketone.chk
 %mem=10gb
 %nprocshared=28
 Will use up to   28 processors via shared memory.
 --------------------------------
 #opt freq wb97xd def2svp scf=xqc
 --------------------------------
 1/18=20,19=15,26=3,38=1/1,3;
 2/9=110,12=2,17=6,18=5,40=1/2;
 3/5=43,7=101,11=2,25=1,30=1,71=1,74=-58/1,2,3;
 4//1;
 5/5=2,8=3,13=1,38=5/2,8;
 6/7=2,8=2,9=2,10=2,28=1/1;
 7//1,2,3,16;
 1/18=20,19=15,26=3/3(2);
 2/9=110/2;
 99//99;
 2/9=110/2;
 3/5=43,7=101,11=2,25=1,30=1,71=1,74=-58/1,2,3;
 4/5=5,16=3,69=1/1;
 5/5=2,8=3,13=1,38=5/2,8;
 7//1,2,3,16;
 1/18=20,19=15,26=3/3(-5);
 2/9=110/2;
 6/7=2,8=2,9=2,10=2,19=2,28=1/1;
 99/9=1/99;
 ----------
 [No Title]
 ----------
 Symbolic Z-matrix:
 Charge =  0 Multiplicity = 1
 C                     13.07655  -7.01057   0.05539 
 C                     13.77858  -8.24056   0.05983 
 C                     15.21698  -8.22821   0.06194 
 C                     15.88601  -6.97742   0.05941 
 C                     15.17287  -5.77825   0.05506 
 C                     13.75233  -5.78628   0.05294 
 C                     13.06864  -9.47264   0.06222 
 C                     12.46649  -10.54891   0.06435 
 C                     11.78552  -11.79597   0.06655 
 C                     10.368   -11.83913   0.06439 
 C                     9.68481  -13.05557   0.06651 
 C                     10.40075  -14.28281   0.07094 
 C                     11.79914  -14.25821   0.07309 
 C                     12.5138  -13.03582   0.071 
 C                     13.93612  -13.03551   0.07321 
 C                     15.16881  -13.02084   0.07516 
 C                     16.59072  -12.99004   0.07721 
 C                     17.33081  -14.19723   0.08176 
 C                     18.72934  -14.19354   0.08388 
 C                     19.41948  -12.95179   0.08147 
 C                     18.71133  -11.74964   0.07696 
 C                     17.29298  -11.73489   0.07473 
 C                     15.95719  -9.44091   0.06642 
 C                     16.58568  -10.50264   0.07013 
 O                     15.73559  -4.52723   0.05233 
 O                     13.06957  -4.61398   0.04864 
 O                     8.32035  -13.19213   0.06468 
 O                     9.72541  -15.45882   0.07302 
 O                     19.42855  -15.3557   0.08823 
 O                     20.78684  -13.0599   0.08394 
 H                     11.97802  -7.00467   0.05368 
 H                     16.98723  -6.96165   0.06106 
 H                     9.80567  -10.89225   0.06101 
 H                     12.34254  -15.21294   0.07646 
 H                     16.80695  -15.16282   0.08365 
 H                     19.25497  -10.79184   0.07512 
 H                     16.70671  -4.60426   0.0541 
 H                     13.74028  -3.89972   0.04767 
 H                     7.90215  -12.31218   0.06102 
 H                     8.77168  -15.23409   0.07063 
 H                     20.37751  -15.11186   0.08876 
 H                     21.18629  -12.1714   0.08108 
 

 GradGradGradGradGradGradGradGradGradGradGradGradGradGradGradGradGradGrad
 Berny optimization.
 Initialization pass.
                           ----------------------------
                           !    Initial Parameters    !
                           ! (Angstroms and Degrees)  !
 --------------------------                            --------------------------
 ! Name  Definition              Value          Derivative Info.                !
 --------------------------------------------------------------------------------
 ! R1    R(1,2)                  1.4162         estimate D2E/DX2                !
 ! R2    R(1,6)                  1.3984         estimate D2E/DX2                !
 ! R3    R(1,31)                 1.0985         estimate D2E/DX2                !
 ! R4    R(2,3)                  1.4385         estimate D2E/DX2                !
 ! R5    R(2,7)                  1.422          estimate D2E/DX2                !
 ! R6    R(3,4)                  1.4185         estimate D2E/DX2                !
 ! R7    R(3,23)                 1.4208         estimate D2E/DX2                !
 ! R8    R(4,5)                  1.3952         estimate D2E/DX2                !
 ! R9    R(4,32)                 1.1013         estimate D2E/DX2                !
 ! R10   R(5,6)                  1.4206         estimate D2E/DX2                !
 ! R11   R(5,25)                 1.3718         estimate D2E/DX2                !
 ! R12   R(6,26)                 1.3566         estimate D2E/DX2                !
 ! R13   R(7,8)                  1.2333         estimate D2E/DX2                !
 ! R14   R(8,9)                  1.4209         estimate D2E/DX2                !
 ! R15   R(9,10)                 1.4182         estimate D2E/DX2                !
 ! R16   R(9,14)                 1.4379         estimate D2E/DX2                !
 ! R17   R(10,11)                1.3952         estimate D2E/DX2                !
 ! R18   R(10,33)                1.1013         estimate D2E/DX2                !
 ! R19   R(11,12)                1.4208         estimate D2E/DX2                !
 ! R20   R(11,27)                1.3713         estimate D2E/DX2                !
 ! R21   R(12,13)                1.3986         estimate D2E/DX2                !
 ! R22   R(12,28)                1.3561         estimate D2E/DX2                !
 ! R23   R(13,14)                1.416          estimate D2E/DX2                !
 ! R24   R(13,34)                1.0985         estimate D2E/DX2                !
 ! R25   R(14,15)                1.4223         estimate D2E/DX2                !
 ! R26   R(15,16)                1.2328         estimate D2E/DX2                !
 ! R27   R(16,17)                1.4222         estimate D2E/DX2                !
 ! R28   R(17,18)                1.416          estimate D2E/DX2                !
 ! R29   R(17,22)                1.4383         estimate D2E/DX2                !
 ! R30   R(18,19)                1.3985         estimate D2E/DX2                !
 ! R31   R(18,35)                1.0985         estimate D2E/DX2                !
 ! R32   R(19,20)                1.4207         estimate D2E/DX2                !
 ! R33   R(19,29)                1.3563         estimate D2E/DX2                !
 ! R34   R(20,21)                1.3952         estimate D2E/DX2                !
 ! R35   R(20,30)                1.3716         estimate D2E/DX2                !
 ! R36   R(21,22)                1.4184         estimate D2E/DX2                !
 ! R37   R(21,36)                1.1013         estimate D2E/DX2                !
 ! R38   R(22,24)                1.4208         estimate D2E/DX2                !
 ! R39   R(23,24)                1.2338         estimate D2E/DX2                !
 ! R40   R(25,37)                0.9742         estimate D2E/DX2                !
 ! R41   R(26,38)                0.9798         estimate D2E/DX2                !
 ! R42   R(27,39)                0.9743         estimate D2E/DX2                !
 ! R43   R(28,40)                0.9799         estimate D2E/DX2                !
 ! R44   R(29,41)                0.9798         estimate D2E/DX2                !
 ! R45   R(30,42)                0.9742         estimate D2E/DX2                !
 ! A1    A(2,1,6)              121.3867         estimate D2E/DX2                !
 ! A2    A(2,1,31)             120.0241         estimate D2E/DX2                !
 ! A3    A(6,1,31)             118.5892         estimate D2E/DX2                !
 ! A4    A(1,2,3)              119.2241         estimate D2E/DX2                !
 ! A5    A(1,2,7)              120.3331         estimate D2E/DX2                !
 ! A6    A(3,2,7)              120.4428         estimate D2E/DX2                !
 ! A7    A(2,3,4)              118.6332         estimate D2E/DX2                !
 ! A8    A(2,3,23)             120.9073         estimate D2E/DX2                !
 ! A9    A(4,3,23)             120.4595         estimate D2E/DX2                !
 ! A10   A(3,4,5)              121.119          estimate D2E/DX2                !
 ! A11   A(3,4,32)             118.9615         estimate D2E/DX2                !
 ! A12   A(5,4,32)             119.9195         estimate D2E/DX2                !
 ! A13   A(4,5,6)              120.4158         estimate D2E/DX2                !
 ! A14   A(4,5,25)             125.0419         estimate D2E/DX2                !
 ! A15   A(6,5,25)             114.5423         estimate D2E/DX2                !
 ! A16   A(1,6,5)              119.2212         estimate D2E/DX2                !
 ! A17   A(1,6,26)             120.8856         estimate D2E/DX2                !
 ! A18   A(5,6,26)             119.8932         estimate D2E/DX2                !
 ! A19   A(8,9,10)             120.3813         estimate D2E/DX2                !
 ! A20   A(8,9,14)             120.9334         estimate D2E/DX2                !
 ! A21   A(10,9,14)            118.6853         estimate D2E/DX2                !
 ! A22   A(9,10,11)            121.0639         estimate D2E/DX2                !
 ! A23   A(9,10,33)            118.9613         estimate D2E/DX2                !
 ! A24   A(11,10,33)           119.9748         estimate D2E/DX2                !
 ! A25   A(10,11,12)           120.4222         estimate D2E/DX2                !
 ! A26   A(10,11,27)           125.0347         estimate D2E/DX2                !
 ! A27   A(12,11,27)           114.5431         estimate D2E/DX2                !
 ! A28   A(11,12,13)           119.2501         estimate D2E/DX2                !
 ! A29   A(11,12,28)           119.875          estimate D2E/DX2                !
 ! A30   A(13,12,28)           120.875          estimate D2E/DX2                !
 ! A31   A(12,13,14)           121.3202         estimate D2E/DX2                !
 ! A32   A(12,13,34)           118.6392         estimate D2E/DX2                !
 ! A33   A(14,13,34)           120.0406         estimate D2E/DX2                !
 ! A34   A(9,14,13)            119.2583         estimate D2E/DX2                !
 ! A35   A(9,14,15)            120.4167         estimate D2E/DX2                !
 ! A36   A(13,14,15)           120.3249         estimate D2E/DX2                !
 ! A37   A(16,17,18)           120.2707         estimate D2E/DX2                !
 ! A38   A(16,17,22)           120.4674         estimate D2E/DX2                !
 ! A39   A(18,17,22)           119.2619         estimate D2E/DX2                !
 ! A40   A(17,18,19)           121.3604         estimate D2E/DX2                !
 ! A41   A(17,18,35)           120.0077         estimate D2E/DX2                !
 ! A42   A(19,18,35)           118.6319         estimate D2E/DX2                !
 ! A43   A(18,19,20)           119.2151         estimate D2E/DX2                !
 ! A44   A(18,19,29)           120.8821         estimate D2E/DX2                !
 ! A45   A(20,19,29)           119.9028         estimate D2E/DX2                !
 ! A46   A(19,20,21)           120.4346         estimate D2E/DX2                !
 ! A47   A(19,20,30)           114.5431         estimate D2E/DX2                !
 ! A48   A(21,20,30)           125.0223         estimate D2E/DX2                !
 ! A49   A(20,21,22)           121.0974         estimate D2E/DX2                !
 ! A50   A(20,21,36)           119.9199         estimate D2E/DX2                !
 ! A51   A(22,21,36)           118.9827         estimate D2E/DX2                !
 ! A52   A(17,22,21)           118.6307         estimate D2E/DX2                !
 ! A53   A(17,22,24)           120.9178         estimate D2E/DX2                !
 ! A54   A(21,22,24)           120.4516         estimate D2E/DX2                !
 ! A55   A(5,25,37)            109.6827         estimate D2E/DX2                !
 ! A56   A(6,26,38)            106.5845         estimate D2E/DX2                !
 ! A57   A(11,27,39)           109.7051         estimate D2E/DX2                !
 ! A58   A(12,28,40)           106.6079         estimate D2E/DX2                !
 ! A59   A(19,29,41)           106.6222         estimate D2E/DX2                !
 ! A60   A(20,30,42)           109.6861         estimate D2E/DX2                !
 ! A61   L(2,7,8,17,-1)        179.2749         estimate D2E/DX2                !
 ! A62   L(7,8,9,16,-1)        179.4113         estimate D2E/DX2                !
 ! A63   L(14,15,16,1,-1)      179.3311         estimate D2E/DX2                !
 ! A64   L(15,16,17,1,-1)      179.4409         estimate D2E/DX2                !
 ! A65   L(3,23,24,8,-1)       179.2241         estimate D2E/DX2                !
 ! A66   L(22,24,23,9,-1)      179.2322         estimate D2E/DX2                !
 ! A67   L(2,7,8,17,-2)        179.9989         estimate D2E/DX2                !
 ! A68   L(7,8,9,16,-2)        180.0125         estimate D2E/DX2                !
 ! A69   L(14,15,16,1,-2)      179.9964         estimate D2E/DX2                !
 ! A70   L(15,16,17,1,-2)      180.0067         estimate D2E/DX2                !
 ! A71   L(3,23,24,8,-2)       179.9913         estimate D2E/DX2                !
 ! A72   L(22,24,23,9,-2)      179.9861         estimate D2E/DX2                !
 ! D1    D(6,1,2,3)              0.0035         estimate D2E/DX2                !
 ! D2    D(6,1,2,7)           -179.9983         estimate D2E/DX2                !
 ! D3    D(31,1,2,3)           179.9965         estimate D2E/DX2                !
 ! D4    D(31,1,2,7)            -0.0054         estimate D2E/DX2                !
 ! D5    D(2,1,6,5)             -0.0046         estimate D2E/DX2                !
 ! D6    D(2,1,6,26)           179.9974         estimate D2E/DX2                !
 ! D7    D(31,1,6,5)          -179.9977         estimate D2E/DX2                !
 ! D8    D(31,1,6,26)            0.0044         estimate D2E/DX2                !
 ! D9    D(1,2,3,4)             -0.0031         estimate D2E/DX2                !
 ! D10   D(1,2,3,23)           179.9986         estimate D2E/DX2                !
 ! D11   D(7,2,3,4)            179.9987         estimate D2E/DX2                !
 ! D12   D(7,2,3,23)             0.0005         estimate D2E/DX2                !
 ! D13   D(1,2,9,10)             0.0056         estimate D2E/DX2                !
 ! D14   D(1,2,9,14)           179.9975         estimate D2E/DX2                !
 ! D15   D(3,2,9,10)          -179.9921         estimate D2E/DX2                !
 ! D16   D(3,2,9,14)            -0.0003         estimate D2E/DX2                !
 ! D17   D(2,3,4,5)              0.0041         estimate D2E/DX2                !
 ! D18   D(2,3,4,32)           179.9971         estimate D2E/DX2                !
 ! D19   D(23,3,4,5)          -179.9977         estimate D2E/DX2                !
 ! D20   D(23,3,4,32)           -0.0047         estimate D2E/DX2                !
 ! D21   D(2,3,22,17)           -0.0021         estimate D2E/DX2                !
 ! D22   D(2,3,22,21)         -179.9964         estimate D2E/DX2                !
 ! D23   D(4,3,22,17)         -179.9992         estimate D2E/DX2                !
 ! D24   D(4,3,22,21)            0.0065         estimate D2E/DX2                !
 ! D25   D(3,4,5,6)             -0.0052         estimate D2E/DX2                !
 ! D26   D(3,4,5,25)          -179.9973         estimate D2E/DX2                !
 ! D27   D(32,4,5,6)          -179.9982         estimate D2E/DX2                !
 ! D28   D(32,4,5,25)            0.0097         estimate D2E/DX2                !
 ! D29   D(4,5,6,1)              0.0054         estimate D2E/DX2                !
 ! D30   D(4,5,6,26)          -179.9966         estimate D2E/DX2                !
 ! D31   D(25,5,6,1)           179.9983         estimate D2E/DX2                !
 ! D32   D(25,5,6,26)           -0.0037         estimate D2E/DX2                !
 ! D33   D(4,5,25,37)           -0.0133         estimate D2E/DX2                !
 ! D34   D(6,5,25,37)          179.9943         estimate D2E/DX2                !
 ! D35   D(1,6,26,38)          179.9966         estimate D2E/DX2                !
 ! D36   D(5,6,26,38)           -0.0013         estimate D2E/DX2                !
 ! D37   D(8,9,10,11)         -179.9997         estimate D2E/DX2                !
 ! D38   D(8,9,10,33)           -0.0009         estimate D2E/DX2                !
 ! D39   D(14,9,10,11)          -0.0006         estimate D2E/DX2                !
 ! D40   D(14,9,10,33)         179.9983         estimate D2E/DX2                !
 ! D41   D(8,9,14,13)          179.9993         estimate D2E/DX2                !
 ! D42   D(8,9,14,15)           -0.0043         estimate D2E/DX2                !
 ! D43   D(10,9,14,13)           0.0001         estimate D2E/DX2                !
 ! D44   D(10,9,14,15)         179.9965         estimate D2E/DX2                !
 ! D45   D(9,10,11,12)           0.0022         estimate D2E/DX2                !
 ! D46   D(9,10,11,27)         179.9999         estimate D2E/DX2                !
 ! D47   D(33,10,11,12)       -179.9967         estimate D2E/DX2                !
 ! D48   D(33,10,11,27)          0.001          estimate D2E/DX2                !
 ! D49   D(10,11,12,13)         -0.0032         estimate D2E/DX2                !
 ! D50   D(10,11,12,28)        179.9973         estimate D2E/DX2                !
 ! D51   D(27,11,12,13)        179.9988         estimate D2E/DX2                !
 ! D52   D(27,11,12,28)         -0.0006         estimate D2E/DX2                !
 ! D53   D(10,11,27,39)          0.0419         estimate D2E/DX2                !
 ! D54   D(12,11,27,39)       -179.9603         estimate D2E/DX2                !
 ! D55   D(11,12,13,14)          0.0028         estimate D2E/DX2                !
 ! D56   D(11,12,13,34)       -179.9966         estimate D2E/DX2                !
 ! D57   D(28,12,13,14)       -179.9978         estimate D2E/DX2                !
 ! D58   D(28,12,13,34)          0.0028         estimate D2E/DX2                !
 ! D59   D(11,12,28,40)          0.0158         estimate D2E/DX2                !
 ! D60   D(13,12,28,40)       -179.9836         estimate D2E/DX2                !
 ! D61   D(12,13,14,9)          -0.0012         estimate D2E/DX2                !
 ! D62   D(12,13,14,15)       -179.9977         estimate D2E/DX2                !
 ! D63   D(34,13,14,9)         179.9981         estimate D2E/DX2                !
 ! D64   D(34,13,14,15)          0.0017         estimate D2E/DX2                !
 ! D65   D(9,14,17,18)         179.9922         estimate D2E/DX2                !
 ! D66   D(9,14,17,22)          -0.0092         estimate D2E/DX2                !
 ! D67   D(13,14,17,18)         -0.0114         estimate D2E/DX2                !
 ! D68   D(13,14,17,22)        179.9872         estimate D2E/DX2                !
 ! D69   D(16,17,18,19)       -179.9985         estimate D2E/DX2                !
 ! D70   D(16,17,18,35)          0.0038         estimate D2E/DX2                !
 ! D71   D(22,17,18,19)         -0.0004         estimate D2E/DX2                !
 ! D72   D(22,17,18,35)       -179.9981         estimate D2E/DX2                !
 ! D73   D(16,17,22,21)        179.9975         estimate D2E/DX2                !
 ! D74   D(16,17,22,24)         -0.0035         estimate D2E/DX2                !
 ! D75   D(18,17,22,21)         -0.0006         estimate D2E/DX2                !
 ! D76   D(18,17,22,24)        179.9983         estimate D2E/DX2                !
 ! D77   D(17,18,19,20)          0.0023         estimate D2E/DX2                !
 ! D78   D(17,18,19,29)       -179.9993         estimate D2E/DX2                !
 ! D79   D(35,18,19,20)        180.0            estimate D2E/DX2                !
 ! D80   D(35,18,19,29)         -0.0016         estimate D2E/DX2                !
 ! D81   D(18,19,20,21)         -0.0032         estimate D2E/DX2                !
 ! D82   D(18,19,20,30)        179.9961         estimate D2E/DX2                !
 ! D83   D(29,19,20,21)        179.9983         estimate D2E/DX2                !
 ! D84   D(29,19,20,30)         -0.0024         estimate D2E/DX2                !
 ! D85   D(18,19,29,41)        179.9859         estimate D2E/DX2                !
 ! D86   D(20,19,29,41)         -0.0156         estimate D2E/DX2                !
 ! D87   D(19,20,21,22)          0.0023         estimate D2E/DX2                !
 ! D88   D(19,20,21,36)       -179.9999         estimate D2E/DX2                !
 ! D89   D(30,20,21,22)       -179.9969         estimate D2E/DX2                !
 ! D90   D(30,20,21,36)          0.0009         estimate D2E/DX2                !
 ! D91   D(19,20,30,42)        179.9385         estimate D2E/DX2                !
 ! D92   D(21,20,30,42)         -0.0623         estimate D2E/DX2                !
 ! D93   D(20,21,22,17)         -0.0004         estimate D2E/DX2                !
 ! D94   D(20,21,22,24)       -179.9993         estimate D2E/DX2                !
 ! D95   D(36,21,22,17)       -179.9982         estimate D2E/DX2                !
 ! D96   D(36,21,22,24)          0.0029         estimate D2E/DX2                !
 --------------------------------------------------------------------------------
 Trust Radius=3.00D-01 FncErr=1.00D-07 GrdErr=1.00D-06 EigMax=2.50D+02 EigMin=1.00D-04
 Number of steps in this run=    223 maximum allowed number of steps=    252.
 GradGradGradGradGradGradGradGradGradGradGradGradGradGradGradGradGradGrad

                          Input orientation:                          
 ---------------------------------------------------------------------
 Center     Atomic      Atomic             Coordinates (Angstroms)
 Number     Number       Type             X           Y           Z
 ---------------------------------------------------------------------
      1          6           0       13.076554   -7.010574    0.055393
      2          6           0       13.778579   -8.240561    0.059834
      3          6           0       15.216979   -8.228210    0.061940
      4          6           0       15.886005   -6.977417    0.059413
      5          6           0       15.172867   -5.778247    0.055059
      6          6           0       13.752333   -5.786278    0.052944
      7          6           0       13.068639   -9.472639    0.062220
      8          6           0       12.466490  -10.548909    0.064354
      9          6           0       11.785520  -11.795965    0.066549
     10          6           0       10.368004  -11.839131    0.064391
     11          6           0        9.684813  -13.055574    0.066507
     12          6           0       10.400749  -14.282814    0.070940
     13          6           0       11.799140  -14.258208    0.073093
     14          6           0       12.513797  -13.035824    0.071002
     15          6           0       13.936115  -13.035506    0.073207
     16          6           0       15.168806  -13.020839    0.075155
     17          6           0       16.590720  -12.990043    0.077207
     18          6           0       17.330814  -14.197230    0.081756
     19          6           0       18.729341  -14.193543    0.083881
     20          6           0       19.419480  -12.951788    0.081467
     21          6           0       18.711327  -11.749643    0.076961
     22          6           0       17.292977  -11.734888    0.074733
     23          6           0       15.957190   -9.440910    0.066419
     24          6           0       16.585677  -10.502639    0.070128
     25          8           0       15.735587   -4.527225    0.052327
     26          8           0       13.069574   -4.613979    0.048639
     27          8           0        8.320353  -13.192128    0.064683
     28          8           0        9.725411  -15.458824    0.073016
     29          8           0       19.428548  -15.355699    0.088226
     30          8           0       20.786837  -13.059904    0.083942
     31          1           0       11.978023   -7.004667    0.053684
     32          1           0       16.987226   -6.961650    0.061056
     33          1           0        9.805665  -10.892247    0.061009
     34          1           0       12.342542  -15.212938    0.076463
     35          1           0       16.806951  -15.162824    0.083652
     36          1           0       19.254971  -10.791837    0.075115
     37          1           0       16.706708   -4.604261    0.054101
     38          1           0       13.740281   -3.899715    0.047673
     39          1           0        7.902146  -12.312179    0.061021
     40          1           0        8.771677  -15.234092    0.070633
     41          1           0       20.377506  -15.111855    0.088757
     42          1           0       21.186285  -12.171401    0.081080
 ---------------------------------------------------------------------
                    Distance matrix (angstroms):
                    1          2          3          4          5
     1  C    0.000000
     2  C    1.416237   0.000000
     3  C    2.462539   1.438455   0.000000
     4  C    2.809650   2.456985   1.418480   0.000000
     5  C    2.431699   2.829673   2.450370   1.395204   0.000000
     6  C    1.398422   2.454433   2.847508   2.443647   1.420558
     7  C    2.462087   1.421983   2.482734   3.763468   4.251630
     8  C    3.590553   2.655197   3.598727   4.944559   5.484868
     9  C    4.956497   4.075933   4.950132   6.327119   6.905591
    10  C    5.536360   4.957998   6.045768   7.354225   7.734411
    11  C    6.931526   6.320072   7.342229   8.683250   9.114733
    12  C    7.748913   6.922332   7.736561   9.135480   9.751975
    13  C    7.359368   6.334858   6.931279   8.349405   9.126450
    14  C    6.051494   4.959269   5.515472   6.933701   7.729381
    15  C    6.085965   4.797551   4.975021   6.364173   7.361908
    16  C    6.364055   4.978356   4.792889   6.085850   7.242621
    17  C    6.935697   5.519603   4.956052   6.053810   7.349884
    18  C    8.351494   6.935471   6.332290   7.362993   8.691186
    19  C    9.140561   7.742649   6.922598   7.756135   9.136003
    20  C    8.690881   7.349550   6.322467   6.941112   8.336313
    21  C    7.362738   6.053590   4.960966   5.545890   6.941091
    22  C    6.332278   4.955960   4.075135   4.961183   6.322723
    23  C    3.768915   2.487414   1.420765   2.464531   3.745716
    24  C    4.950624   3.605122   2.654511   3.594001   4.931140
    25  O    3.638336   4.197476   3.737156   2.454815   1.371757
    26  O    2.396615   3.695255   4.204068   3.676716   2.404039
    27  O    7.799561   7.369550   8.497290   9.790901  10.095676
    28  O    9.088641   8.278385   9.079605  10.482718  11.108045
    29  O   10.487613   9.085601   8.278835   9.096486  10.480435
    30  O    9.800187   8.505429   7.373538   7.811236   9.194565
    31  H    1.098548   2.183912   3.462364   3.908081   3.422154
    32  H    3.910982   3.454132   2.176683   1.101335   2.166190
    33  H    5.076035   4.776556   6.031535   7.231627   7.413494
    34  H    8.235168   7.118744   7.553080   8.965502   9.850106
    35  H    8.965257   7.555748   7.114587   8.237088   9.525825
    36  H    7.243699   6.041532   4.783068   5.089202   6.465297
    37  H    4.355268   4.668688   3.918209   2.511066   1.931557
    38  H    3.180886   4.341032   4.573479   3.751869   2.362465
    39  H    7.408208   7.149164   8.377684   9.602171   9.775259
    40  H    9.282157   8.601085   9.519684  10.898921  11.418778
    41  H   10.905768   9.526875   8.603274   9.292122  10.686704
    42  H    9.612624   8.386064   7.154141   7.420978   8.776918
                    6          7          8          9         10
     6  C    0.000000
     7  C    3.749237   0.000000
     8  C    4.933171   1.233266   0.000000
     9  C    6.323360   2.654102   1.420871   0.000000
    10  C    6.934756   3.590782   2.463395   1.418175   0.000000
    11  C    8.329920   4.928257   3.744476   2.449405   1.395166
    12  C    9.133705   5.500500   4.267245   2.846406   2.443911
    13  C    8.694192   4.951103   3.768863   2.462289   2.810722
    14  C    7.354605   3.606136   2.487374   1.437935   2.456938
    15  C    7.251586   3.666968   2.888432   2.482250   3.763350
    16  C    7.371958   4.123177   3.662385   3.598196   4.944113
    17  C    7.742820   4.977691   4.792554   4.951352   6.328267
    18  C    9.140595   6.363040   6.080477   6.042896   7.351303
    19  C    9.770039   7.370953   7.246174   7.346110   8.686518
    20  C    9.135749   7.241411   7.356507   7.720978   9.119623
    21  C    7.755896   6.084808   6.359238   6.925970   8.343812
    22  C    6.922615   4.791968   4.970074   5.507802   6.925765
    23  C    4.268244   2.888728   3.662329   4.790523   6.081979
    24  C    5.502017   3.664767   4.119451   4.971339   6.359693
    25  O    2.349151   5.618704   6.851848   8.272715   9.070560
    26  O    1.356637   4.858679   5.965514   7.295892   7.713725
    27  O    9.184398   6.031652   4.917017   3.735861   2.454277
    28  O   10.477340   6.856508   5.623242   4.202455   3.676299
    29  O   11.126297   8.663689   8.460263   8.431373   9.719068
    30  O   10.118836   8.511141   8.691010   9.089640  10.490126
    31  H    2.152359   2.698222   3.577760   4.795181   5.095519
    32  H    3.441816   4.654073   5.771091   7.101294   8.222161
    33  H    6.453462   3.558411   2.682887   2.176365   1.101284
    34  H    9.531526   5.786057   4.665691   3.462091   3.909158
    35  H    9.861605   6.808351   6.334681   6.045726   7.246195
    36  H    7.438759   6.325437   6.792835   7.536647   8.948470
    37  H    3.182059   6.077558   7.301945   8.714290   9.618868
    38  H    1.886609   5.613270   6.770126   8.134630   8.625941
    39  H    8.764253   5.895391   4.893094   3.917538   2.510825
    40  H   10.680283   7.187370   5.966793   4.572087   3.751541
    41  H   11.439431   9.231522   9.132647   9.209660  10.530976
    42  H    9.799706   8.554522   8.869475   9.408270  10.823395
                   11         12         13         14         15
    11  C    0.000000
    12  C    1.420810   0.000000
    13  C    2.432437   1.398609   0.000000
    14  C    2.829057   2.453560   1.415967   0.000000
    15  C    4.251355   3.748946   2.462044   1.422320   0.000000
    16  C    5.484110   4.932237   3.589671   2.655055   1.232780
    17  C    6.906226   6.323530   4.956561   4.077185   2.654997
    18  C    7.730779   6.930602   5.532017   4.955061   3.587988
    19  C    9.115852   8.329080   6.930511   6.322457   4.931144
    20  C    9.735232   9.116427   7.731519   6.906202   5.484010
    21  C    9.120500   8.688078   7.353315   6.329587   4.945312
    22  C    7.721945   7.348112   6.045609   4.953081   3.600018
    23  C    7.239372   7.370081   6.363630   4.977990   4.123822
    24  C    7.357949   7.248659   6.084015   4.795543   3.665461
    25  O   10.456807  11.119009  10.497051   9.098161   8.696515
    26  O    9.094914  10.030428   9.727577   8.440193   8.466027
    27  O    1.371277   2.348975   3.638483   4.196361   5.617952
    28  O    2.403602   1.356129   2.396212   3.694053   4.858240
    29  O   10.011564   9.091344   7.707956   7.293552   5.962411
    30  O   11.102039  10.457844   9.067235   8.273085   6.850774
    31  H    6.470893   7.447115   7.255772   6.054933   6.340783
    32  H    9.511108   9.847904   8.952996   7.543690   6.797143
    33  H    2.166707   3.442407   3.912005   3.453839   4.653421
    34  H    3.423133   2.153073   1.098547   2.183846   2.698276
    35  H    7.427358   6.466375   5.088871   4.791186   3.573135
    36  H    9.834252   9.517572   8.222235   7.104852   5.772719
    37  H   10.987805  11.551614  10.829740   9.416583   8.874821
    38  H   10.013837  10.906959  10.538835   9.218096   9.137925
    39  H    1.931468   3.182219   4.355885   4.668092   6.077181
    40  H    2.362155   1.886480   3.180863   4.340028   5.612950
    41  H   10.888640  10.011159   8.620749   8.133151   6.767790
    42  H   11.535416  10.990266   9.616305   8.715468   7.301486
                   16         17         18         19         20
    16  C    0.000000
    17  C    1.422249   0.000000
    18  C    2.461345   1.416002   0.000000
    19  C    3.748696   2.454008   1.398533   0.000000
    20  C    4.251240   2.829022   2.431800   1.420652   0.000000
    21  C    3.763695   2.456739   2.810075   2.443976   1.395225
    22  C    2.483097   1.438258   2.462643   2.847492   2.450083
    23  C    3.665722   3.605249   4.950723   5.502058   4.930917
    24  C    2.889443   2.487419   3.769001   4.268285   3.745517
    25  O    8.512534   8.505949   9.800745  10.119351   9.194845
    26  O    8.665032   9.086129  10.487991  11.126646  10.480527
    27  O    6.850603   8.272845   9.066362  10.457066  11.101742
    28  O    5.964422   7.295709   7.709335   9.092404  10.013005
    29  O    4.857689   3.694552   2.396368   1.356288   2.403938
    30  O    5.618174   4.196704   3.638353   2.349133   1.371627
    31  H    6.809984   7.556603   8.965831   9.862107   9.525980
    32  H    6.326185   6.041440   7.243763   7.438801   6.465140
    33  H    5.770129   7.101970   8.218954   9.514782   9.831967
    34  H    3.576740   4.794609   5.090633   6.467644   7.429393
    35  H    2.696607   2.183523   1.098548   2.152926   3.422571
    36  H    4.654589   3.454033   3.911410   3.442088   2.166216
    37  H    8.555955   8.386616   9.613289   9.800319   8.777305
    38  H    9.232353   9.526801  10.905590  11.439184  10.686181
    39  H    7.301147   8.714992   9.615281  10.989459  11.535099
    40  H    6.769178   8.134693   8.621719  10.011892  10.889662
    41  H    5.612761   4.340734   3.181025   1.886735   2.362997
    42  H    6.077140   4.667913   4.355300   3.182081   1.931477
                   21         22         23         24         25
    21  C    0.000000
    22  C    1.418428   0.000000
    23  C    3.593832   2.654568   0.000000
    24  C    2.464438   1.420821   1.233806   0.000000
    25  O    7.811463   7.374034   4.918700   6.035606   0.000000
    26  O    9.096586   8.279200   5.624758   6.858554   2.667427
    27  O   10.490627   9.090194   8.508403   8.691891  11.404665
    28  O    9.721354   8.434202   8.663164   8.463275  12.474875
    29  O    3.676707   4.203703   6.858245   5.624450  11.440940
    30  O    2.454501   3.736684   6.035140   4.918286   9.915782
    31  H    8.237276   7.115066   4.665749   5.785028   4.500779
    32  H    5.088974   4.783040   2.684722   3.563696   2.737353
    33  H    8.946854   7.534592   6.320417   6.791203   8.699285
    34  H    7.249540   6.050094   6.810440   6.339649  11.211503
    35  H    3.908516   3.462231   5.784695   4.665455  10.689470
    36  H    1.101338   2.176871   3.563768   2.684919   7.185537
    37  H    7.421287   7.154717   4.894395   5.899641   0.974173
    38  H    9.291584   8.603041   5.968239   7.189950   2.091659
    39  H   10.823821   9.408568   8.551488   8.870075  11.043930
    40  H   10.532714   9.211786   9.229982   9.134837  12.772368
    41  H    3.752434   4.573666   7.190223   5.968516  11.557817
    42  H    2.510640   3.917707   5.899087   4.893923   9.388523
                   26         27         28         29         30
    26  O    0.000000
    27  O    9.805101   0.000000
    28  O   11.348775   2.666865   0.000000
    29  O   12.482895  11.316960   9.703697   0.000000
    30  O   11.440762  12.467200  11.318572   2.667516   0.000000
    31  H    2.628098   7.187722   8.749137  11.191571  10.689341
    32  H    4.567243  10.673966  11.177480   8.741902   7.185142
    33  H    7.076009   2.737813   4.567298  10.607687  11.193096
    34  H   10.623901   4.501313   2.628659   7.087454   8.714455
    35  H   11.191396   8.712425   7.087732   2.628686   4.501307
    36  H    8.742183  11.194971  10.610998   4.567180   2.736936
    37  H    3.637151  12.003438  12.905828  11.090672   9.388623
    38  H    0.979807  10.757548  12.236536  12.790528  11.557003
    39  H    9.271718   0.974280   3.636731  11.921480  12.906389
    40  H   11.456841   2.091255   0.979856  10.657579  12.210296
    41  H   12.791125  12.209049  10.657756   0.979786   2.092386
    42  H   11.090387  12.906369  11.923039   3.637230   0.974169
                   31         32         33         34         35
    31  H    0.000000
    32  H    5.009393   0.000000
    33  H    4.453366   8.186844   0.000000
    34  H    8.216393   9.468742   5.010425   0.000000
    35  H    9.480241   8.203186   8.200997   4.464696   0.000000
    36  H    8.203480   4.451202   9.449850   8.205353   5.009831
    37  H    5.303057   2.374031   9.336124  11.471289  10.559080
    38  H    3.570198   4.462990   8.023521  11.399277  11.673191
    39  H    6.691974  10.543569   2.374782   5.303938   9.349986
    40  H    8.832009  11.658844   4.463277   3.570932   8.035601
    41  H   11.673861   8.827265  11.382868   8.035609   3.570922
    42  H   10.558787   6.691338  11.452299   9.352153   5.303507
                   36         37         38         39         40
    36  H    0.000000
    37  H    6.691800   0.000000
    38  H    8.826885   3.048953   0.000000
    39  H   11.454182  11.701810  10.239802   0.000000
    40  H   11.385653  13.264927  12.375607   3.048566   0.000000
    41  H    4.463499  11.130386  13.029448  12.785678  11.606487
    42  H    2.373438   8.793688  11.129460  13.284900  12.786817
                   41         42
    41  H    0.000000
    42  H    3.049664   0.000000
 Stoichiometry    C24H12O6
 Framework group  C1[X(C24H12O6)]
 Deg. of freedom   120
 Full point group                 C1      NOp   1
 Largest Abelian subgroup         C1      NOp   1
 Largest concise Abelian subgroup C1      NOp   1
                         Standard orientation:                         
 ---------------------------------------------------------------------
 Center     Atomic      Atomic             Coordinates (Angstroms)
 Number     Number       Type             X           Y           Z
 ---------------------------------------------------------------------
      1          6           0        0.467384    4.219891   -0.000168
      2          6           0        0.077333    2.858426   -0.000128
      3          6           0       -1.322901    2.529040   -0.000019
      4          6           0       -2.269666    3.585317    0.000113
      5          6           0       -1.861506    4.919483    0.000054
      6          6           0       -0.479652    5.248825   -0.000030
      7          6           0        1.059402    1.830040   -0.000235
      8          6           0        1.899781    0.927428   -0.000350
      9          6           0        2.857262   -0.122383   -0.000179
     10          6           0        4.244523    0.172113   -0.000118
     11          6           0        5.196896   -0.847433    0.000044
     12          6           0        4.792680   -2.209531    0.000106
     13          6           0        3.428403   -2.517517    0.000071
     14          6           0        2.444052   -1.499668   -0.000083
     15          6           0        1.062296   -1.836927   -0.000065
     16          6           0       -0.138656   -2.115242   -0.000126
     17          6           0       -1.527253   -2.422797   -0.000040
     18          6           0       -1.959697   -3.771149   -0.000111
     19          6           0       -3.319141   -4.099489   -0.000060
     20          6           0       -4.284271   -3.057002    0.000017
     21          6           0       -3.881660   -1.721129    0.000109
     22          6           0       -2.507335   -1.370170    0.000079
     23          6           0       -1.754150    1.175305   -0.000005
     24          6           0       -2.112697   -0.005255    0.000189
     25          8           0       -2.705057    6.001213    0.000224
     26          8           0       -0.094626    6.549678   -0.000017
     27          8           0        6.554781   -0.656249    0.000110
     28          8           0        5.727828   -3.191662    0.000209
     29          8           0       -3.722553   -5.394392   -0.000115
     30          8           0       -5.586902   -3.486554   -0.000023
     31          1           0        1.533127    4.486351   -0.000192
     32          1           0       -3.343166    3.339274    0.000148
     33          1           0        4.566068    1.225410   -0.000220
     34          1           0        3.127115   -3.573941    0.000177
     35          1           0       -1.221634   -4.584827   -0.000170
     36          1           0       -4.637090   -0.919712    0.000171
     37          1           0       -3.630149    5.695895    0.000180
     38          1           0       -0.915688    7.084354    0.000033
     39          1           0        6.752199    0.297819    0.000698
     40          1           0        6.600977   -2.746994    0.000483
     41          1           0       -4.702270   -5.382735    0.000167
     42          1           0       -6.185807   -2.718233    0.001020
 ---------------------------------------------------------------------
 Rotational constants (GHZ):           0.1153105           0.1149540           0.0575660
 Standard basis: def2SVP (5D, 7F)
 There are   510 symmetry adapted cartesian basis functions of A   symmetry.
 There are   480 symmetry adapted basis functions of A   symmetry.
   480 basis functions,   834 primitive gaussians,   510 cartesian basis functions
   102 alpha electrons      102 beta electrons
       nuclear repulsion energy      2444.5611411440 Hartrees.
 NAtoms=   42 NActive=   42 NUniq=   42 SFac= 1.00D+00 NAtFMM=   60 NAOKFM=F Big=F
 Integral buffers will be    131072 words long.
 Raffenetti 2 integral format.
 Two-electron integral symmetry is turned on.
 Nuclear repulsion after empirical dispersion term =     2444.5343028889 Hartrees.
 One-electron integrals computed using PRISM.
   1 Symmetry operations used in ECPInt.
 ECPInt:  NShTT=   23436 NPrTT=   88836 LenC2=   18077 LenP2D=   44365.
 LDataN:  DoStor=T MaxTD1= 4 Len=   56
 NBasis=   480 RedAO= T EigKep=  1.58D-04  NBF=   480
 NBsUse=   480 1.00D-06 EigRej= -1.00D+00 NBFU=   480
 ExpMin= 1.22D-01 ExpMax= 2.27D+03 ExpMxC= 3.41D+02 IAcc=3 IRadAn=         5 AccDes= 0.00D+00
 Harris functional with IExCor= 4639 and IRadAn=       5 diagonalized for initial guess.
 HarFok:  IExCor= 4639 AccDes= 0.00D+00 IRadAn=         5 IDoV= 1 UseB2=F ITyADJ=14
 ICtDFT=  3500011 ScaDFX=  1.000000  1.000000  1.000000  1.000000
 FoFCou: FMM=F IPFlag=           0 FMFlag=      100000 FMFlg1=           0
         NFxFlg=           0 DoJE=T BraDBF=F KetDBF=T FulRan=T
         wScrn=  0.000000 ICntrl=       500 IOpCl=  0 I1Cent=   200000004 NGrid=           0
         NMat0=    1 NMatS0=      1 NMatT0=    0 NMatD0=    1 NMtDS0=    0 NMtDT0=    0
 Petite list used in FoFCou.
 Requested convergence on RMS density matrix=1.00D-08 within  32 cycles.
 Requested convergence on MAX density matrix=1.00D-06.
 Requested convergence on             energy=1.00D-06.
 No special actions if energy rises.
 Integral accuracy reduced to 1.0D-05 until final iterations.
 Initial convergence to 1.0D-05 achieved.  Increase integral accuracy.
 SCF Done:  E(RwB97XD) =  -1371.50162848     A.U. after   16 cycles
            NFock= 16  Conv=0.58D-08     -V/T= 2.0105
 QCSCF skips out because SCF is already converged.

 **********************************************************************

            Population analysis using the SCF density.

 **********************************************************************

 Orbital symmetries:
       Occupied  (A) (A) (A) (A) (A) (A) (A) (A) (A) (A) (A) (A)
                 (A) (A) (A) (A) (A) (A) (A) (A) (A) (A) (A) (A)
                 (A) (A) (A) (A) (A) (A) (A) (A) (A) (A) (A) (A)
                 (A) (A) (A) (A) (A) (A) (A) (A) (A) (A) (A) (A)
                 (A) (A) (A) (A) (A) (A) (A) (A) (A) (A) (A) (A)
                 (A) (A) (A) (A) (A) (A) (A) (A) (A) (A) (A) (A)
                 (A) (A) (A) (A) (A) (A) (A) (A) (A) (A) (A) (A)
                 (A) (A) (A) (A) (A) (A) (A) (A) (A) (A) (A) (A)
                 (A) (A) (A) (A) (A) (A)
       Virtual   (A) (A) (A) (A) (A) (A) (A) (A) (A) (A) (A) (A)
                 (A) (A) (A) (A) (A) (A) (A) (A) (A) (A) (A) (A)
                 (A) (A) (A) (A) (A) (A) (A) (A) (A) (A) (A) (A)
                 (A) (A) (A) (A) (A) (A) (A) (A) (A) (A) (A) (A)
                 (A) (A) (A) (A) (A) (A) (A) (A) (A) (A) (A) (A)
                 (A) (A) (A) (A) (A) (A) (A) (A) (A) (A) (A) (A)
                 (A) (A) (A) (A) (A) (A) (A) (A) (A) (A) (A) (A)
                 (A) (A) (A) (A) (A) (A) (A) (A) (A) (A) (A) (A)
                 (A) (A) (A) (A) (A) (A) (A) (A) (A) (A) (A) (A)
                 (A) (A) (A) (A) (A) (A) (A) (A) (A) (A) (A) (A)
                 (A) (A) (A) (A) (A) (A) (A) (A) (A) (A) (A) (A)
                 (A) (A) (A) (A) (A) (A) (A) (A) (A) (A) (A) (A)
                 (A) (A) (A) (A) (A) (A) (A) (A) (A) (A) (A) (A)
                 (A) (A) (A) (A) (A) (A) (A) (A) (A) (A) (A) (A)
                 (A) (A) (A) (A) (A) (A) (A) (A) (A) (A) (A) (A)
                 (A) (A) (A) (A) (A) (A) (A) (A) (A) (A) (A) (A)
                 (A) (A) (A) (A) (A) (A) (A) (A) (A) (A) (A) (A)
                 (A) (A) (A) (A) (A) (A) (A) (A) (A) (A) (A) (A)
                 (A) (A) (A) (A) (A) (A) (A) (A) (A) (A) (A) (A)
                 (A) (A) (A) (A) (A) (A) (A) (A) (A) (A) (A) (A)
                 (A) (A) (A) (A) (A) (A) (A) (A) (A) (A) (A) (A)
                 (A) (A) (A) (A) (A) (A) (A) (A) (A) (A) (A) (A)
                 (A) (A) (A) (A) (A) (A) (A) (A) (A) (A) (A) (A)
                 (A) (A) (A) (A) (A) (A) (A) (A) (A) (A) (A) (A)
                 (A) (A) (A) (A) (A) (A) (A) (A) (A) (A) (A) (A)
                 (A) (A) (A) (A) (A) (A) (A) (A) (A) (A) (A) (A)
                 (A) (A) (A) (A) (A) (A) (A) (A) (A) (A) (A) (A)
                 (A) (A) (A) (A) (A) (A) (A) (A) (A) (A) (A) (A)
                 (A) (A) (A) (A) (A) (A) (A) (A) (A) (A) (A) (A)
                 (A) (A) (A) (A) (A) (A) (A) (A) (A) (A) (A) (A)
                 (A) (A) (A) (A) (A) (A) (A) (A) (A) (A) (A) (A)
                 (A) (A) (A) (A) (A) (A)
 The electronic state is 1-A.
 Alpha  occ. eigenvalues --  -19.31552 -19.31459 -19.31311 -19.29336 -19.29198
 Alpha  occ. eigenvalues --  -19.29101 -10.37782 -10.37691 -10.37569 -10.37312
 Alpha  occ. eigenvalues --  -10.37198 -10.37104 -10.33757 -10.33715 -10.33668
 Alpha  occ. eigenvalues --  -10.33600 -10.33544 -10.33506 -10.32435 -10.32354
 Alpha  occ. eigenvalues --  -10.32199 -10.31435 -10.31288 -10.31207 -10.30557
 Alpha  occ. eigenvalues --  -10.30398 -10.30363 -10.30237 -10.30192 -10.30043
 Alpha  occ. eigenvalues --   -1.18179  -1.18080  -1.17955  -1.14838  -1.14723
 Alpha  occ. eigenvalues --   -1.14614  -0.96714  -0.96330  -0.96229  -0.88391
 Alpha  occ. eigenvalues --   -0.87983  -0.87970  -0.86136  -0.86097  -0.85978
 Alpha  occ. eigenvalues --   -0.81337  -0.81287  -0.79421  -0.75639  -0.75169
 Alpha  occ. eigenvalues --   -0.74309  -0.73768  -0.71785  -0.70924  -0.67044
 Alpha  occ. eigenvalues --   -0.66457  -0.65863  -0.65422  -0.65033  -0.64732
 Alpha  occ. eigenvalues --   -0.60681  -0.60439  -0.59986  -0.59171  -0.58776
 Alpha  occ. eigenvalues --   -0.57947  -0.53826  -0.53702  -0.53645  -0.53583
 Alpha  occ. eigenvalues --   -0.53421  -0.53244  -0.52826  -0.52576  -0.52169
 Alpha  occ. eigenvalues --   -0.50368  -0.50074  -0.49943  -0.48358  -0.47879
 Alpha  occ. eigenvalues --   -0.47833  -0.47697  -0.47289  -0.47094  -0.46921
 Alpha  occ. eigenvalues --   -0.45537  -0.45441  -0.44589  -0.44462  -0.44345
 Alpha  occ. eigenvalues --   -0.39214  -0.38971  -0.36139  -0.35754  -0.34418
 Alpha  occ. eigenvalues --   -0.34233  -0.34225  -0.32693  -0.31977  -0.28847
 Alpha  occ. eigenvalues --   -0.28316  -0.24548
 Alpha virt. eigenvalues --   -0.01734   0.02650   0.02752   0.06185   0.07793
 Alpha virt. eigenvalues --    0.07831   0.10337   0.10389   0.11012   0.11405
 Alpha virt. eigenvalues --    0.11880   0.12853   0.14421   0.15246   0.15714
 Alpha virt. eigenvalues --    0.17913   0.18119   0.18243   0.18510   0.18980
 Alpha virt. eigenvalues --    0.19025   0.19497   0.19707   0.21069   0.26520
 Alpha virt. eigenvalues --    0.26591   0.27170   0.27187   0.27451   0.28003
 Alpha virt. eigenvalues --    0.29306   0.29347   0.30593   0.30844   0.31723
 Alpha virt. eigenvalues --    0.32152   0.32244   0.32895   0.33270   0.33405
 Alpha virt. eigenvalues --    0.33985   0.35234   0.35973   0.36407   0.37169
 Alpha virt. eigenvalues --    0.38456   0.38655   0.38821   0.39610   0.39859
 Alpha virt. eigenvalues --    0.41161   0.41831   0.42730   0.43308   0.43515
 Alpha virt. eigenvalues --    0.44335   0.44833   0.46726   0.46981   0.47403
 Alpha virt. eigenvalues --    0.49480   0.50871   0.50990   0.51718   0.52587
 Alpha virt. eigenvalues --    0.53873   0.53897   0.56354   0.56378   0.56884
 Alpha virt. eigenvalues --    0.56969   0.58128   0.58188   0.59446   0.59528
 Alpha virt. eigenvalues --    0.59827   0.60310   0.60327   0.60928   0.61287
 Alpha virt. eigenvalues --    0.61473   0.62056   0.62154   0.62555   0.64149
 Alpha virt. eigenvalues --    0.64453   0.65077   0.65475   0.66316   0.66706
 Alpha virt. eigenvalues --    0.66776   0.66817   0.66995   0.67309   0.67462
 Alpha virt. eigenvalues --    0.67674   0.69136   0.69238   0.69547   0.70994
 Alpha virt. eigenvalues --    0.71250   0.71827   0.72887   0.73172   0.75010
 Alpha virt. eigenvalues --    0.75175   0.75350   0.75479   0.75792   0.77472
 Alpha virt. eigenvalues --    0.77513   0.79943   0.80504   0.80780   0.81069
 Alpha virt. eigenvalues --    0.83033   0.83221   0.83290   0.83326   0.83781
 Alpha virt. eigenvalues --    0.84107   0.84998   0.85122   0.86375   0.88175
 Alpha virt. eigenvalues --    0.88808   0.88863   0.88923   0.90023   0.91528
 Alpha virt. eigenvalues --    0.91977   0.92702   0.95078   0.95518   0.98030
 Alpha virt. eigenvalues --    0.98895   0.99348   1.01331   1.01513   1.01538
 Alpha virt. eigenvalues --    1.02488   1.02548   1.02586   1.03237   1.03680
 Alpha virt. eigenvalues --    1.03759   1.07283   1.07809   1.08093   1.08999
 Alpha virt. eigenvalues --    1.09914   1.11523   1.11766   1.11854   1.12237
 Alpha virt. eigenvalues --    1.13589   1.13853   1.14826   1.16048   1.17253
 Alpha virt. eigenvalues --    1.18804   1.19186   1.20945   1.21891   1.22856
 Alpha virt. eigenvalues --    1.24167   1.24861   1.25853   1.26586   1.28373
 Alpha virt. eigenvalues --    1.28625   1.28924   1.29081   1.29156   1.29195
 Alpha virt. eigenvalues --    1.29338   1.32240   1.32928   1.33030   1.33244
 Alpha virt. eigenvalues --    1.33886   1.34038   1.34516   1.34690   1.34877
 Alpha virt. eigenvalues --    1.39288   1.39687   1.41837   1.42255   1.42425
 Alpha virt. eigenvalues --    1.42968   1.43305   1.43323   1.43588   1.43744
 Alpha virt. eigenvalues --    1.44766   1.49500   1.52125   1.54429   1.55581
 Alpha virt. eigenvalues --    1.55818   1.56291   1.57350   1.59658   1.59739
 Alpha virt. eigenvalues --    1.59876   1.61967   1.62676   1.63120   1.63361
 Alpha virt. eigenvalues --    1.64163   1.64631   1.64712   1.64815   1.64891
 Alpha virt. eigenvalues --    1.65310   1.66503   1.67171   1.68271   1.72785
 Alpha virt. eigenvalues --    1.74201   1.74962   1.75612   1.76141   1.76597
 Alpha virt. eigenvalues --    1.77862   1.78207   1.79073   1.79735   1.79792
 Alpha virt. eigenvalues --    1.79907   1.80658   1.81319   1.81808   1.82793
 Alpha virt. eigenvalues --    1.82987   1.84142   1.84634   1.87104   1.87658
 Alpha virt. eigenvalues --    1.88373   1.88796   1.89110   1.91562   1.93106
 Alpha virt. eigenvalues --    1.93348   1.93688   1.94710   1.95446   1.95507
 Alpha virt. eigenvalues --    1.95898   1.96538   1.97047   1.98316   1.99102
 Alpha virt. eigenvalues --    1.99637   2.00045   2.00160   2.00361   2.00663
 Alpha virt. eigenvalues --    2.00946   2.01282   2.02108   2.04840   2.05488
 Alpha virt. eigenvalues --    2.08298   2.09787   2.10148   2.10633   2.14451
 Alpha virt. eigenvalues --    2.15074   2.16907   2.17223   2.17237   2.18060
 Alpha virt. eigenvalues --    2.18336   2.21539   2.22120   2.23209   2.23852
 Alpha virt. eigenvalues --    2.24464   2.25663   2.26122   2.26852   2.27574
 Alpha virt. eigenvalues --    2.28618   2.28697   2.28918   2.29138   2.29527
 Alpha virt. eigenvalues --    2.30038   2.32126   2.32587   2.32589   2.32971
 Alpha virt. eigenvalues --    2.33464   2.35048   2.35489   2.35920   2.36457
 Alpha virt. eigenvalues --    2.38196   2.40899   2.41024   2.42014   2.47156
 Alpha virt. eigenvalues --    2.47477   2.47578   2.49383   2.49674   2.57925
 Alpha virt. eigenvalues --    2.59847   2.59951   2.65490   2.65830   2.65962
 Alpha virt. eigenvalues --    2.66044   2.66745   2.69772   2.71061   2.71182
 Alpha virt. eigenvalues --    2.71382   2.72226   2.72598   2.73565   2.81371
 Alpha virt. eigenvalues --    2.83440   2.85844   2.86457   2.89155   2.89507
 Alpha virt. eigenvalues --    2.89812   2.92379   2.92860   2.92958   2.95835
 Alpha virt. eigenvalues --    2.95931   2.96299   2.96498   2.99417   2.99679
 Alpha virt. eigenvalues --    2.99875   3.03573   3.03705   3.03876   3.04886
 Alpha virt. eigenvalues --    3.06654   3.07340   3.08008   3.08438   3.08576
 Alpha virt. eigenvalues --    3.10188   3.19495   3.20104   3.20700   3.26878
 Alpha virt. eigenvalues --    3.27469   3.29986   3.34773   3.36177   3.36322
 Alpha virt. eigenvalues --    3.39481   3.40483   3.44046   3.52505   3.52577
 Alpha virt. eigenvalues --    3.53368   3.55915   3.56541   3.57846   3.72073
 Alpha virt. eigenvalues --    3.72242   3.82536   3.85923   3.86072   3.86254
 Alpha virt. eigenvalues --    3.91759   3.91923   3.95941
          Condensed to atoms (all electrons):
               1          2          3          4          5          6
     1  C    5.111996   0.330232   0.049607  -0.081559   0.030453   0.337570
     2  C    0.330232   5.402897   0.300895   0.035078  -0.133990   0.094855
     3  C    0.049607   0.300895   5.397855   0.314985   0.102070  -0.121069
     4  C   -0.081559   0.035078   0.314985   5.247319   0.227418   0.060107
     5  C    0.030453  -0.133990   0.102070   0.227418   5.292121   0.126787
     6  C    0.337570   0.094855  -0.121069   0.060107   0.126787   5.049634
     7  C   -0.077227   0.220221  -0.043815   0.008897   0.000361   0.009676
     8  C   -0.004929  -0.164918  -0.002732  -0.000103   0.000032   0.000383
     9  C   -0.000260   0.008274  -0.000550   0.000010  -0.000002   0.000023
    10  C   -0.000007  -0.000186   0.000009   0.000000   0.000000  -0.000000
    11  C   -0.000000   0.000023  -0.000000   0.000000  -0.000000   0.000000
    12  C    0.000000  -0.000002   0.000000   0.000000   0.000000  -0.000000
    13  C    0.000000   0.000011  -0.000001   0.000000   0.000000   0.000000
    14  C    0.000008  -0.000456   0.000031  -0.000001   0.000000  -0.000000
    15  C   -0.000002   0.000060  -0.000030  -0.000001   0.000000   0.000000
    16  C   -0.000002  -0.000047   0.000042  -0.000003   0.000000   0.000000
    17  C   -0.000001   0.000027  -0.000486   0.000010  -0.000000   0.000000
    18  C    0.000000  -0.000001   0.000011   0.000000   0.000000   0.000000
    19  C    0.000000   0.000000  -0.000002   0.000000  -0.000000  -0.000000
    20  C    0.000000  -0.000000   0.000022  -0.000000   0.000000  -0.000000
    21  C    0.000000   0.000010  -0.000170  -0.000010  -0.000000   0.000000
    22  C    0.000011  -0.000494   0.008738  -0.000169   0.000022  -0.000002
    23  C    0.008503  -0.042295   0.199042  -0.060149   0.007858  -0.000044
    24  C    0.000066  -0.000871  -0.164959  -0.002800   0.000204  -0.000011
    25  O    0.002571   0.000274   0.004114  -0.066985   0.394854  -0.089802
    26  O   -0.069372   0.003353  -0.000124   0.004731  -0.090908   0.453179
    27  O    0.000000   0.000000  -0.000000   0.000000  -0.000000  -0.000000
    28  O   -0.000000  -0.000000   0.000000  -0.000000   0.000000  -0.000000
    29  O   -0.000000   0.000000  -0.000000  -0.000000  -0.000000   0.000000
    30  O    0.000000  -0.000000   0.000000   0.000000  -0.000000  -0.000000
    31  H    0.445882  -0.061291   0.014605  -0.003275   0.019999  -0.063268
    32  H   -0.002293   0.015405  -0.038072   0.432036  -0.074232   0.014443
    33  H    0.000007  -0.000175   0.000000  -0.000000  -0.000000   0.000001
    34  H   -0.000000   0.000000  -0.000000  -0.000000   0.000000  -0.000000
    35  H   -0.000000  -0.000000   0.000000  -0.000000  -0.000000   0.000000
    36  H   -0.000000   0.000000  -0.000183   0.000004   0.000001  -0.000000
    37  H   -0.000367  -0.000010   0.000636  -0.016182  -0.013502   0.009878
    38  H    0.008847  -0.000252  -0.000299   0.002349  -0.030032  -0.017770
    39  H    0.000000   0.000000  -0.000000   0.000000   0.000000  -0.000000
    40  H   -0.000000  -0.000000   0.000000  -0.000000  -0.000000   0.000000
    41  H   -0.000000   0.000000  -0.000000  -0.000000   0.000000  -0.000000
    42  H    0.000000  -0.000000   0.000000   0.000000  -0.000000   0.000000
               7          8          9         10         11         12
     1  C   -0.077227  -0.004929  -0.000260  -0.000007  -0.000000   0.000000
     2  C    0.220221  -0.164918   0.008274  -0.000186   0.000023  -0.000002
     3  C   -0.043815  -0.002732  -0.000550   0.000009  -0.000000   0.000000
     4  C    0.008897  -0.000103   0.000010   0.000000   0.000000   0.000000
     5  C    0.000361   0.000032  -0.000002   0.000000  -0.000000   0.000000
     6  C    0.009676   0.000383   0.000023  -0.000000   0.000000  -0.000000
     7  C    5.322783   0.794010  -0.169637  -0.003108   0.000226  -0.000015
     8  C    0.794010   5.319755   0.200037  -0.060317   0.007866  -0.000083
     9  C   -0.169637   0.200037   5.405727   0.315387   0.102714  -0.121682
    10  C   -0.003108  -0.060317   0.315387   5.245124   0.226275   0.060607
    11  C    0.000226   0.007866   0.102714   0.226275   5.292136   0.126352
    12  C   -0.000015  -0.000083  -0.121682   0.060607   0.126352   5.050508
    13  C    0.000084   0.008580   0.049851  -0.081094   0.030763   0.336181
    14  C   -0.000237  -0.042128   0.297933   0.035206  -0.134377   0.095562
    15  C    0.000125  -0.031178  -0.043828   0.008983   0.000316   0.009706
    16  C   -0.002396   0.000632  -0.002244  -0.000082   0.000027   0.000404
    17  C   -0.000047   0.000092  -0.000510   0.000010  -0.000002   0.000024
    18  C   -0.000003  -0.000002   0.000007   0.000000   0.000000  -0.000000
    19  C    0.000000   0.000000  -0.000000   0.000000  -0.000000   0.000000
    20  C    0.000000   0.000000   0.000000   0.000000   0.000000  -0.000000
    21  C   -0.000003  -0.000001  -0.000001   0.000000   0.000000   0.000000
    22  C    0.000050  -0.000037   0.000035  -0.000001   0.000000  -0.000000
    23  C   -0.030728   0.000793   0.000086  -0.000003   0.000000   0.000000
    24  C    0.000316  -0.002141  -0.000039  -0.000001   0.000000   0.000000
    25  O    0.000004   0.000000   0.000000   0.000000  -0.000000   0.000000
    26  O   -0.000079  -0.000000   0.000000   0.000000  -0.000000  -0.000000
    27  O   -0.000001  -0.000113   0.004118  -0.067034   0.395393  -0.089842
    28  O   -0.000000   0.000004  -0.000123   0.004717  -0.090900   0.453688
    29  O   -0.000000   0.000000  -0.000000   0.000000  -0.000000  -0.000000
    30  O    0.000000  -0.000000  -0.000000  -0.000000   0.000000  -0.000000
    31  H   -0.014565  -0.002024  -0.000179   0.000000   0.000001  -0.000000
    32  H   -0.000086   0.000016   0.000000  -0.000000  -0.000000   0.000000
    33  H   -0.001035  -0.014011  -0.037516   0.432991  -0.073999   0.014291
    34  H    0.000011  -0.000054   0.014497  -0.003252   0.019786  -0.063132
    35  H   -0.000000  -0.000000   0.000001  -0.000000  -0.000000   0.000001
    36  H    0.000000  -0.000001  -0.000000  -0.000000   0.000000  -0.000000
    37  H   -0.000000   0.000000   0.000000   0.000000  -0.000000   0.000000
    38  H    0.000013  -0.000000  -0.000000  -0.000000   0.000000  -0.000000
    39  H    0.000001  -0.000038   0.000635  -0.016128  -0.013416   0.009856
    40  H    0.000000   0.000004  -0.000300   0.002353  -0.030036  -0.017729
    41  H   -0.000000   0.000000   0.000000  -0.000000  -0.000000   0.000000
    42  H    0.000000   0.000000   0.000000  -0.000000   0.000000  -0.000000
              13         14         15         16         17         18
     1  C    0.000000   0.000008  -0.000002  -0.000002  -0.000001   0.000000
     2  C    0.000011  -0.000456   0.000060  -0.000047   0.000027  -0.000001
     3  C   -0.000001   0.000031  -0.000030   0.000042  -0.000486   0.000011
     4  C    0.000000  -0.000001  -0.000001  -0.000003   0.000010   0.000000
     5  C    0.000000   0.000000   0.000000   0.000000  -0.000000   0.000000
     6  C    0.000000  -0.000000   0.000000   0.000000   0.000000   0.000000
     7  C    0.000084  -0.000237   0.000125  -0.002396  -0.000047  -0.000003
     8  C    0.008580  -0.042128  -0.031178   0.000632   0.000092  -0.000002
     9  C    0.049851   0.297933  -0.043828  -0.002244  -0.000510   0.000007
    10  C   -0.081094   0.035206   0.008983  -0.000082   0.000010   0.000000
    11  C    0.030763  -0.134377   0.000316   0.000027  -0.000002   0.000000
    12  C    0.336181   0.095562   0.009706   0.000404   0.000024  -0.000000
    13  C    5.110516   0.329992  -0.077367  -0.005134  -0.000278  -0.000002
    14  C    0.329992   5.409758   0.221460  -0.169356   0.007799  -0.000278
    15  C   -0.077367   0.221460   5.324372   0.789321  -0.168696  -0.005242
    16  C   -0.005134  -0.169356   0.789321   5.326959   0.221832  -0.077513
    17  C   -0.000278   0.007799  -0.168696   0.221832   5.406834   0.330687
    18  C   -0.000002  -0.000278  -0.005242  -0.077513   0.330687   5.110784
    19  C   -0.000000   0.000024   0.000409   0.009726   0.095500   0.335505
    20  C    0.000000  -0.000002   0.000030   0.000331  -0.134000   0.030756
    21  C    0.000000   0.000010  -0.000099   0.008925   0.035090  -0.081281
    22  C    0.000007  -0.000516  -0.002430  -0.044260   0.299171   0.049883
    23  C   -0.000002  -0.000057  -0.002263   0.000241  -0.000627   0.000084
    24  C   -0.000002   0.000102   0.000686  -0.030846  -0.041890   0.008576
    25  O   -0.000000  -0.000000  -0.000000   0.000000  -0.000000   0.000000
    26  O    0.000000  -0.000000   0.000000  -0.000000   0.000000  -0.000000
    27  O    0.002552   0.000275   0.000004   0.000000   0.000000   0.000000
    28  O   -0.069458   0.003347  -0.000079  -0.000000   0.000000   0.000000
    29  O    0.000000   0.000000  -0.000000  -0.000079   0.003348  -0.069489
    30  O    0.000000   0.000000   0.000000   0.000004   0.000276   0.002544
    31  H    0.000000   0.000001  -0.000000  -0.000000  -0.000000  -0.000000
    32  H   -0.000000  -0.000000  -0.000001   0.000000   0.000000  -0.000000
    33  H   -0.002277   0.015293  -0.000084   0.000016   0.000000  -0.000000
    34  H    0.446575  -0.060515  -0.014580  -0.002021  -0.000171   0.000002
    35  H    0.000003  -0.000172  -0.002033  -0.014584  -0.060337   0.446657
    36  H   -0.000000   0.000000   0.000016  -0.000086   0.015399  -0.002299
    37  H   -0.000000   0.000000   0.000000   0.000000  -0.000000   0.000000
    38  H   -0.000000   0.000000   0.000000  -0.000000   0.000000  -0.000000
    39  H   -0.000366  -0.000009  -0.000000   0.000000   0.000000   0.000000
    40  H    0.008850  -0.000254   0.000013  -0.000000   0.000000  -0.000000
    41  H   -0.000000   0.000000  -0.000000   0.000013  -0.000254   0.008850
    42  H    0.000000   0.000000   0.000000  -0.000000  -0.000010  -0.000365
              19         20         21         22         23         24
     1  C    0.000000   0.000000   0.000000   0.000011   0.008503   0.000066
     2  C    0.000000  -0.000000   0.000010  -0.000494  -0.042295  -0.000871
     3  C   -0.000002   0.000022  -0.000170   0.008738   0.199042  -0.164959
     4  C    0.000000  -0.000000  -0.000010  -0.000169  -0.060149  -0.002800
     5  C   -0.000000   0.000000  -0.000000   0.000022   0.007858   0.000204
     6  C   -0.000000  -0.000000   0.000000  -0.000002  -0.000044  -0.000011
     7  C    0.000000   0.000000  -0.000003   0.000050  -0.030728   0.000316
     8  C    0.000000   0.000000  -0.000001  -0.000037   0.000793  -0.002141
     9  C   -0.000000   0.000000  -0.000001   0.000035   0.000086  -0.000039
    10  C    0.000000   0.000000   0.000000  -0.000001  -0.000003  -0.000001
    11  C   -0.000000   0.000000   0.000000   0.000000   0.000000   0.000000
    12  C    0.000000  -0.000000   0.000000  -0.000000   0.000000   0.000000
    13  C   -0.000000   0.000000   0.000000   0.000007  -0.000002  -0.000002
    14  C    0.000024  -0.000002   0.000010  -0.000516  -0.000057   0.000102
    15  C    0.000409   0.000030  -0.000099  -0.002430  -0.002263   0.000686
    16  C    0.009726   0.000331   0.008925  -0.044260   0.000241  -0.030846
    17  C    0.095500  -0.134000   0.035090   0.299171  -0.000627  -0.041890
    18  C    0.335505   0.030756  -0.081281   0.049883   0.000084   0.008576
    19  C    5.051797   0.125826   0.060205  -0.121629  -0.000014  -0.000074
    20  C    0.125826   5.292282   0.227795   0.102246   0.000206   0.007857
    21  C    0.060205   0.227795   5.247214   0.314643  -0.002832  -0.060069
    22  C   -0.121629   0.102246   0.314643   5.401128  -0.165459   0.198746
    23  C   -0.000014   0.000206  -0.002832  -0.165459   5.317360   0.798805
    24  C   -0.000074   0.007857  -0.060069   0.198746   0.798805   5.315045
    25  O   -0.000000  -0.000000   0.000000   0.000000  -0.000112  -0.000000
    26  O    0.000000  -0.000000  -0.000000  -0.000000   0.000004  -0.000000
    27  O   -0.000000   0.000000  -0.000000  -0.000000   0.000000  -0.000000
    28  O   -0.000000  -0.000000   0.000000  -0.000000  -0.000000   0.000000
    29  O    0.453708  -0.090994   0.004729  -0.000125  -0.000000   0.000004
    30  O   -0.089724   0.394989  -0.066999   0.004119  -0.000000  -0.000112
    31  H    0.000000  -0.000000  -0.000000   0.000000  -0.000056   0.000010
    32  H   -0.000000   0.000001   0.000004  -0.000183  -0.013992  -0.001028
    33  H   -0.000000   0.000000  -0.000000  -0.000000   0.000000  -0.000001
    34  H    0.000001  -0.000000  -0.000000   0.000001  -0.000000  -0.000000
    35  H   -0.063244   0.019798  -0.003246   0.014505   0.000010  -0.000054
    36  H    0.014452  -0.074134   0.431912  -0.038240  -0.001028  -0.013985
    37  H    0.000000  -0.000000   0.000000   0.000000  -0.000038   0.000001
    38  H   -0.000000   0.000000  -0.000000  -0.000000   0.000004   0.000000
    39  H   -0.000000   0.000000  -0.000000   0.000000   0.000000   0.000000
    40  H    0.000000  -0.000000  -0.000000   0.000000  -0.000000   0.000000
    41  H   -0.017666  -0.030058   0.002349  -0.000299   0.000000   0.000004
    42  H    0.009879  -0.013507  -0.016242   0.000640   0.000001  -0.000038
              25         26         27         28         29         30
     1  C    0.002571  -0.069372   0.000000  -0.000000  -0.000000   0.000000
     2  C    0.000274   0.003353   0.000000  -0.000000   0.000000  -0.000000
     3  C    0.004114  -0.000124  -0.000000   0.000000  -0.000000   0.000000
     4  C   -0.066985   0.004731   0.000000  -0.000000  -0.000000   0.000000
     5  C    0.394854  -0.090908  -0.000000   0.000000  -0.000000  -0.000000
     6  C   -0.089802   0.453179  -0.000000  -0.000000   0.000000  -0.000000
     7  C    0.000004  -0.000079  -0.000001  -0.000000  -0.000000   0.000000
     8  C    0.000000  -0.000000  -0.000113   0.000004   0.000000  -0.000000
     9  C    0.000000   0.000000   0.004118  -0.000123  -0.000000  -0.000000
    10  C    0.000000   0.000000  -0.067034   0.004717   0.000000  -0.000000
    11  C   -0.000000  -0.000000   0.395393  -0.090900  -0.000000   0.000000
    12  C    0.000000  -0.000000  -0.089842   0.453688  -0.000000  -0.000000
    13  C   -0.000000   0.000000   0.002552  -0.069458   0.000000   0.000000
    14  C   -0.000000  -0.000000   0.000275   0.003347   0.000000   0.000000
    15  C   -0.000000   0.000000   0.000004  -0.000079  -0.000000   0.000000
    16  C    0.000000  -0.000000   0.000000  -0.000000  -0.000079   0.000004
    17  C   -0.000000   0.000000   0.000000   0.000000   0.003348   0.000276
    18  C    0.000000  -0.000000   0.000000   0.000000  -0.069489   0.002544
    19  C   -0.000000   0.000000  -0.000000  -0.000000   0.453708  -0.089724
    20  C   -0.000000  -0.000000   0.000000  -0.000000  -0.090994   0.394989
    21  C    0.000000  -0.000000  -0.000000   0.000000   0.004729  -0.066999
    22  C    0.000000  -0.000000  -0.000000  -0.000000  -0.000125   0.004119
    23  C   -0.000112   0.000004   0.000000  -0.000000  -0.000000  -0.000000
    24  C   -0.000000  -0.000000  -0.000000   0.000000   0.000004  -0.000112
    25  O    7.674327  -0.005982   0.000000   0.000000   0.000000   0.000000
    26  O   -0.005982   7.585553   0.000000   0.000000   0.000000   0.000000
    27  O    0.000000   0.000000   7.673331  -0.005983   0.000000   0.000000
    28  O    0.000000   0.000000  -0.005983   7.584000   0.000000   0.000000
    29  O    0.000000   0.000000   0.000000   0.000000   7.584004  -0.005947
    30  O    0.000000   0.000000   0.000000   0.000000  -0.005947   7.673931
    31  H   -0.000053   0.000092  -0.000000  -0.000000  -0.000000   0.000000
    32  H   -0.004168  -0.000063   0.000000  -0.000000  -0.000000  -0.000000
    33  H   -0.000000  -0.000000  -0.004109  -0.000062  -0.000000  -0.000000
    34  H   -0.000000  -0.000000  -0.000051   0.000104  -0.000000  -0.000000
    35  H    0.000000  -0.000000  -0.000000  -0.000000   0.000096  -0.000051
    36  H   -0.000000  -0.000000  -0.000000  -0.000000  -0.000063  -0.004171
    37  H    0.329878   0.000025  -0.000000   0.000000   0.000000   0.000000
    38  H    0.026077   0.334012  -0.000000   0.000000   0.000000  -0.000000
    39  H    0.000000   0.000000   0.330012   0.000023  -0.000000   0.000000
    40  H    0.000000  -0.000000   0.026087   0.333958  -0.000000   0.000000
    41  H   -0.000000   0.000000   0.000000  -0.000000   0.333923   0.025991
    42  H    0.000000   0.000000   0.000000  -0.000000   0.000024   0.329847
              31         32         33         34         35         36
     1  C    0.445882  -0.002293   0.000007  -0.000000  -0.000000  -0.000000
     2  C   -0.061291   0.015405  -0.000175   0.000000  -0.000000   0.000000
     3  C    0.014605  -0.038072   0.000000  -0.000000   0.000000  -0.000183
     4  C   -0.003275   0.432036  -0.000000  -0.000000  -0.000000   0.000004
     5  C    0.019999  -0.074232  -0.000000   0.000000  -0.000000   0.000001
     6  C   -0.063268   0.014443   0.000001  -0.000000   0.000000  -0.000000
     7  C   -0.014565  -0.000086  -0.001035   0.000011  -0.000000   0.000000
     8  C   -0.002024   0.000016  -0.014011  -0.000054  -0.000000  -0.000001
     9  C   -0.000179   0.000000  -0.037516   0.014497   0.000001  -0.000000
    10  C    0.000000  -0.000000   0.432991  -0.003252  -0.000000  -0.000000
    11  C    0.000001  -0.000000  -0.073999   0.019786  -0.000000   0.000000
    12  C   -0.000000   0.000000   0.014291  -0.063132   0.000001  -0.000000
    13  C    0.000000  -0.000000  -0.002277   0.446575   0.000003  -0.000000
    14  C    0.000001  -0.000000   0.015293  -0.060515  -0.000172   0.000000
    15  C   -0.000000  -0.000001  -0.000084  -0.014580  -0.002033   0.000016
    16  C   -0.000000   0.000000   0.000016  -0.002021  -0.014584  -0.000086
    17  C   -0.000000   0.000000   0.000000  -0.000171  -0.060337   0.015399
    18  C   -0.000000  -0.000000  -0.000000   0.000002   0.446657  -0.002299
    19  C    0.000000  -0.000000  -0.000000   0.000001  -0.063244   0.014452
    20  C   -0.000000   0.000001   0.000000  -0.000000   0.019798  -0.074134
    21  C   -0.000000   0.000004  -0.000000  -0.000000  -0.003246   0.431912
    22  C    0.000000  -0.000183  -0.000000   0.000001   0.014505  -0.038240
    23  C   -0.000056  -0.013992   0.000000  -0.000000   0.000010  -0.001028
    24  C    0.000010  -0.001028  -0.000001  -0.000000  -0.000054  -0.013985
    25  O   -0.000053  -0.004168  -0.000000  -0.000000   0.000000  -0.000000
    26  O    0.000092  -0.000063  -0.000000  -0.000000  -0.000000  -0.000000
    27  O   -0.000000   0.000000  -0.004109  -0.000051  -0.000000  -0.000000
    28  O   -0.000000  -0.000000  -0.000062   0.000104  -0.000000  -0.000000
    29  O   -0.000000  -0.000000  -0.000000  -0.000000   0.000096  -0.000063
    30  O    0.000000  -0.000000  -0.000000  -0.000000  -0.000051  -0.004171
    31  H    0.640136   0.000000   0.000026   0.000000  -0.000000   0.000000
    32  H    0.000000   0.663466   0.000000  -0.000000   0.000000   0.000032
    33  H    0.000026   0.000000   0.658003  -0.000001   0.000000  -0.000000
    34  H    0.000000  -0.000000  -0.000001   0.635075   0.000020   0.000000
    35  H   -0.000000   0.000000   0.000000   0.000020   0.634416  -0.000000
    36  H    0.000000   0.000032  -0.000000   0.000000  -0.000000   0.664133
    37  H    0.000015   0.005613   0.000000   0.000000  -0.000000  -0.000000
    38  H   -0.000510  -0.000054   0.000000   0.000000  -0.000000   0.000000
    39  H   -0.000000  -0.000000   0.005558   0.000014   0.000000   0.000000
    40  H    0.000000  -0.000000  -0.000054  -0.000504   0.000000   0.000000
    41  H   -0.000000   0.000000   0.000000   0.000000  -0.000504  -0.000054
    42  H   -0.000000  -0.000000   0.000000   0.000000   0.000015   0.005624
              37         38         39         40         41         42
     1  C   -0.000367   0.008847   0.000000  -0.000000  -0.000000   0.000000
     2  C   -0.000010  -0.000252   0.000000  -0.000000   0.000000  -0.000000
     3  C    0.000636  -0.000299  -0.000000   0.000000  -0.000000   0.000000
     4  C   -0.016182   0.002349   0.000000  -0.000000  -0.000000   0.000000
     5  C   -0.013502  -0.030032   0.000000  -0.000000   0.000000  -0.000000
     6  C    0.009878  -0.017770  -0.000000   0.000000  -0.000000   0.000000
     7  C   -0.000000   0.000013   0.000001   0.000000  -0.000000   0.000000
     8  C    0.000000  -0.000000  -0.000038   0.000004   0.000000   0.000000
     9  C    0.000000  -0.000000   0.000635  -0.000300   0.000000   0.000000
    10  C    0.000000  -0.000000  -0.016128   0.002353  -0.000000  -0.000000
    11  C   -0.000000   0.000000  -0.013416  -0.030036  -0.000000   0.000000
    12  C    0.000000  -0.000000   0.009856  -0.017729   0.000000  -0.000000
    13  C   -0.000000  -0.000000  -0.000366   0.008850  -0.000000   0.000000
    14  C    0.000000   0.000000  -0.000009  -0.000254   0.000000   0.000000
    15  C    0.000000   0.000000  -0.000000   0.000013  -0.000000   0.000000
    16  C    0.000000  -0.000000   0.000000  -0.000000   0.000013  -0.000000
    17  C   -0.000000   0.000000   0.000000   0.000000  -0.000254  -0.000010
    18  C    0.000000  -0.000000   0.000000  -0.000000   0.008850  -0.000365
    19  C    0.000000  -0.000000  -0.000000   0.000000  -0.017666   0.009879
    20  C   -0.000000   0.000000   0.000000  -0.000000  -0.030058  -0.013507
    21  C    0.000000  -0.000000  -0.000000  -0.000000   0.002349  -0.016242
    22  C    0.000000  -0.000000   0.000000   0.000000  -0.000299   0.000640
    23  C   -0.000038   0.000004   0.000000  -0.000000   0.000000   0.000001
    24  C    0.000001   0.000000   0.000000   0.000000   0.000004  -0.000038
    25  O    0.329878   0.026077   0.000000   0.000000  -0.000000   0.000000
    26  O    0.000025   0.334012   0.000000  -0.000000   0.000000   0.000000
    27  O   -0.000000  -0.000000   0.330012   0.026087   0.000000   0.000000
    28  O    0.000000   0.000000   0.000023   0.333958  -0.000000  -0.000000
    29  O    0.000000   0.000000  -0.000000  -0.000000   0.333923   0.000024
    30  O    0.000000  -0.000000   0.000000   0.000000   0.025991   0.329847
    31  H    0.000015  -0.000510  -0.000000   0.000000  -0.000000  -0.000000
    32  H    0.005613  -0.000054  -0.000000  -0.000000   0.000000  -0.000000
[...]
 01683,0.00000009,-0.00015926,0.00089074,-0.00000508,0.23424755,0.34311
 905,-0.00001891,0.00001932,0.00126813,0.00000326,0.00000556,0.00177314
 ,-0.00000196,-0.00000137,-0.00007965,0.00000365,-0.00000035,-0.0007276
 2,0.00000309,0.00002216,0.00165608,0.00009400,0.00013399,-0.00191817,-
 0.00000055,0.00000104,-0.00005447,-0.00000007,-0.00000018,-0.00002323,
 0.00000019,0.00000027,0.00000043,0.00000007,-0.00000013,-0.00000940,0.
 00000066,-0.00000032,0.00000103,0.00000031,0.00000074,0.00000245,-0.00
 000026,-0.00000002,-0.00000436,-0.00000009,0.,0.00000007,-0.00000004,0
 .,-0.00000018,0.00000003,-0.00000002,-0.00000645,0.00000014,-0.0000000
 1,0.00000349,0.00000020,-0.00000003,-0.00000363,-0.00000030,0.00000071
 ,0.00000290,-0.00000057,-0.00000029,0.00000335,-0.00000001,-0.00000015
 ,-0.00000929,-0.00000015,0.00000036,0.00000345,-0.00000032,-0.00000026
 ,-0.00007622,0.00000022,-0.00000018,0.00000156,0.00000861,-0.00000746,
 -0.00146192,0.00014205,0.00035726,-0.00686622,-0.00000065,-0.00000004,
 -0.00000967,-0.00000055,-0.00000081,-0.00000604,0.00000054,-0.00000077
 ,-0.00000564,0.00000058,-0.00000006,-0.00000836,0.00000068,-0.00000154
 ,-0.00052672,0.00000001,-0.00000014,0.00015346,0.00000001,0.00000007,0
 .00000940,0.,0.,0.00000350,0.,-0.00000002,0.00000226,-0.00000007,0.000
 00007,0.00000651,0.00000193,-0.00000918,-0.00093413,-0.00023572,-0.000
 51843,0.00780754,0.00008483,0.00007627,-0.00000004,-0.00012089,-0.0001
 8309,0.00000027,0.00000518,0.00005064,-0.00000012,-0.00002185,0.000061
 12,-0.00000020,-0.00012830,-0.00019288,0.00000031,0.00017097,-0.000215
 77,0.00000085,0.00003129,0.00013541,-0.00000037,0.00028346,-0.00001398
 ,0.00000073,-0.00061364,0.00004654,0.00000063,0.00388744,0.00100988,0.
 00000415,-0.02570895,0.04399129,-0.00017380,-0.00661624,-0.00311900,-0
 .00000436,0.00002655,0.00189641,-0.00000637,0.00046471,-0.00023020,0.0
 0000085,-0.00005465,-0.00010091,0.00000021,0.00017716,-0.00001465,0.00
 000024,-0.00019306,-0.00000417,-0.00000028,0.00007809,0.00002266,0.000
 00008,-0.00008352,0.00019689,-0.00000069,-0.00021163,-0.00000338,-0.00
 000035,0.00004580,-0.00005701,0.00000024,0.00003085,-0.00000632,0.0000
 0008,-0.00001329,0.00002764,-0.00000009,0.00002333,-0.00002282,0.00000
 010,0.00014191,0.00027843,-0.00000051,-0.00011617,0.00024710,-0.000000
 82,-0.12951295,0.16295031,-0.00071680,0.00146346,-0.00186517,0.0000065
 4,0.00012519,-0.00016053,0.00000065,0.00029283,-0.00000417,0.00000053,
 0.00000600,-0.00003393,0.00000006,0.00001628,0.00000676,0.,-0.00042564
 ,-0.00189793,0.00000340,-0.00040016,-0.00011285,0.00000025,-0.00001613
 ,0.00001192,-0.00000007,0.00001178,0.00001080,-0.00000002,-0.00003759,
 -0.00003359,0.00000002,0.00001472,-0.00005315,0.00000015,0.15755538,-0
 .00004469,-0.00002789,-0.00000005,0.00000183,0.00001306,0.,-0.00002441
 ,0.00002046,-0.00000010,0.00002172,0.00000839,0.,0.00003318,0.00000286
 ,0.00000006,-0.00004181,0.00005268,-0.00000020,-0.00000682,-0.00012221
 ,0.00000025,-0.00006065,0.00017044,-0.00000065,-0.00056256,-0.00061948
 ,-0.00000144,-0.00439624,0.00367998,-0.00001863,-0.00280513,0.00360166
 ,-0.00002323,-0.00454955,0.00001573,-0.00000089,0.00130859,0.00026040,
 0.00000439,-0.00054746,-0.00077690,0.00000192,0.00018843,-0.00012720,0
 .00000062,-0.00014787,0.00001268,-0.00000019,0.00013462,0.00001341,0.0
 0000015,-0.00001684,-0.00002059,0.,0.00001089,-0.00006851,0.00000022,0
 .00009292,-0.00002816,0.00000025,-0.00003167,0.00003608,-0.00000017,-0
 .00004721,0.00005691,-0.00000024,-0.00000638,0.00000082,-0.00000002,0.
 00001483,0.00000200,0.,0.00000812,-0.00001310,0.00000002,0.00005796,-0
 .00008105,0.00000025,0.21451782,-0.45657516,0.00177682,0.00172966,0.00
 063345,0.00000138,-0.00002087,0.00002395,-0.00000012,-0.00016047,-0.00
 000027,-0.00000030,-0.00000647,-0.00001371,0.00000010,0.00000195,0.000
 00588,0.,0.00061900,-0.00121278,0.00000569,-0.00004196,0.00008078,-0.0
 0000125,0.00000730,-0.00000807,0.00000005,-0.00001200,-0.00000376,0.,-
 0.00000303,0.00000390,0.,-0.00000683,0.00000531,0.,-0.20505584,0.44956
 772,0.00000028,0.00000015,-0.00001712,-0.00000024,-0.00000030,0.000014
 47,0.00000007,0.00000002,-0.00000250,-0.00000008,0.00000008,-0.0000027
 5,-0.00000028,-0.00000031,0.00000435,0.00000036,-0.00000046,0.00000369
 ,0.00000012,0.00000051,-0.00002269,0.00000088,-0.00000064,-0.00006659,
 0.00000080,0.00000093,-0.00065192,0.00002085,-0.00001039,-0.00049511,-
 0.00002118,0.00004774,-0.00206488,-0.00000012,-0.00000007,0.00183564,-
 0.00000336,0.00000481,0.00105104,0.00000137,0.00000126,0.00025154,-0.0
 0000047,0.00000014,-0.00002026,0.00000065,-0.00000009,-0.00001293,-0.0
 0000062,-0.00000003,0.00000450,0.00000018,0.00000006,-0.00000631,-0.00
 000016,0.00000046,0.00000242,-0.00000054,0.00000007,0.00000165,0.00000
 015,-0.00000018,-0.00000465,0.00000015,-0.00000013,0.00000013,0.,0.000
 00004,-0.00000430,0.00000001,-0.00000005,-0.00000215,0.00000022,0.0000
 0044,-0.00001025,-0.00000029,0.00000053,-0.00001962,-0.00088620,0.0016
 9954,-0.00194372,-0.00000097,-0.00000394,0.00029370,0.00000025,-0.0000
 0032,-0.00000718,0.00000082,-0.00000002,-0.00000565,-0.00000001,0.0000
 0005,0.00002578,0.00000001,0.,0.00000375,-0.00000338,0.00000130,0.0003
 8450,0.00000023,-0.00000136,-0.00034401,-0.00000005,0.00000005,0.00000
 588,0.00000004,0.00000003,0.00000319,-0.00000007,-0.00000004,0.0000081
 4,0.00000002,-0.00000006,0.00001208,0.00089031,-0.00173834,0.00270390,
 0.00007187,0.00006581,-0.00000004,-0.00014896,-0.00025657,0.00000044,-
 0.00000289,0.00007162,-0.00000020,-0.00004377,0.00009252,-0.00000032,-
 0.00009965,-0.00022397,0.00000044,0.00016263,-0.00019236,0.00000078,0.
 00015582,0.00031666,-0.00000075,-0.00022808,-0.00031346,0.00000083,0.0
 0103347,0.00049756,0.00000024,-0.00257071,-0.00046087,-0.00000138,0.00
 606977,0.00493605,-0.00000691,-0.03097731,-0.00309098,-0.00003646,0.00
 228794,-0.00252863,0.00000818,-0.00132691,0.00016812,-0.00000510,-0.00
 001146,-0.00009564,0.00000039,-0.00000064,-0.00001552,0.00000005,-0.00
 007191,-0.00000152,-0.00000011,0.00004920,0.00001044,0.00000007,-0.000
 06676,0.00016608,-0.00000057,-0.00015658,-0.00004022,-0.00000016,0.000
 01299,-0.00002499,0.00000010,0.00001203,0.00001203,0.,-0.00001976,0.00
 002305,-0.00000008,0.00001713,-0.00001116,0.00000005,0.00016704,0.0003
 2391,-0.00000060,-0.00009331,0.00019662,-0.00000067,-0.00208498,-0.001
 04673,0.00000269,-0.49504850,0.07902838,-0.00098266,0.00011509,-0.0001
 4739,0.00000060,0.00019438,-0.00000122,0.00000035,0.00000534,-0.000021
 42,0.00000005,0.00001791,0.00000905,0.,0.00026098,0.00039491,-0.000000
 95,0.00016491,-0.00003071,0.00000109,-0.00001673,0.00000758,-0.0000000
 6,0.00000409,0.00000894,-0.00000002,-0.00004592,-0.00003110,0.,0.00001
 768,-0.00004993,0.00000015,-0.00057957,-0.00017841,0.00000044,0.522844
 01,0.00001535,0.00001329,-0.00000004,-0.00002984,-0.00001517,0.,0.0000
 0337,0.00002635,-0.00000006,0.00000267,-0.00000521,0.,-0.00007700,-0.0
 0006127,0.00000005,0.00006477,-0.00006567,0.00000030,-0.00003633,-0.00
 002631,0.00000002,0.00020157,0.00000985,0.00000007,0.00015660,-0.00068
 926,0.00000189,0.00047911,0.00076949,-0.00000360,-0.01000097,-0.004179
 25,0.00000080,-0.04351105,0.00507557,-0.00008711,-0.00320118,-0.006774
 98,0.00001813,-0.00059105,0.00165795,-0.00000044,-0.00031141,-0.000359
 14,0.00000045,0.00012807,0.00000393,0.,-0.00014677,0.00001507,-0.00000
 024,0.00004309,0.00002255,-0.00000001,-0.00005560,0.00015881,-0.000000
 53,-0.00014824,0.00000344,-0.00000026,0.00002964,-0.00005291,0.0000001
 9,0.00003561,-0.00002705,0.00000014,0.00000746,-0.00000512,0.,-0.00000
 013,-0.00000225,0.,0.00005772,0.00009450,-0.00000018,-0.00003121,0.000
 09130,-0.00000032,0.00155078,0.00193035,-0.00000916,0.13039128,-0.0709
 4053,0.00038441,0.00008232,-0.00012082,0.00000044,0.00021774,-0.000007
 76,0.00000039,-0.00000155,-0.00001747,0.00000007,0.00000688,0.00000141
 ,0.00000001,-0.00001411,-0.00003986,0.00000053,-0.00001883,-0.00001459
 ,-0.00000150,-0.00000871,0.00000814,0.,0.00000766,0.00000703,0.,-0.000
 01596,-0.00001694,0.00000003,-0.00000293,-0.00002367,0.00000008,0.0023
 5078,0.00142789,-0.00000154,-0.07757831,0.07211580,0.00000008,0.000000
 03,-0.00000919,-0.00000014,-0.00000031,0.00000463,-0.00000002,0.000000
 03,0.00000204,-0.00000006,0.00000014,-0.00000338,0.00000007,-0.0000001
 5,0.00000220,0.00000004,-0.00000008,0.00000504,0.00000032,0.00000053,0
 .00000167,-0.00000078,-0.00000068,-0.00007591,0.00000111,0.00000238,-0
 .00008217,-0.00000416,-0.00000473,-0.00072747,0.00003472,0.00002395,0.
 00163645,0.00007959,-0.00002433,-0.00192178,0.00001068,0.00001922,0.00
 128457,-0.00000282,0.00000061,0.00177645,0.00000095,0.00000072,-0.0000
 5545,-0.00000032,-0.00000010,-0.00002354,0.00000030,-0.00000004,0.0000
 0200,-0.00000003,-0.00000007,-0.00000983,0.00000005,-0.00000020,0.0000
 0261,0.00000018,-0.00000006,0.00000163,-0.00000005,0.00000010,-0.00000
 405,-0.00000008,0.00000009,-0.00000063,-0.00000004,0.00000003,-0.00000
 638,0.00000003,-0.00000001,-0.00000001,0.00000009,0.00000018,-0.000005
 98,-0.00000003,0.,-0.00000804,-0.00000578,-0.00001215,-0.00144673,-0.0
 0112943,0.00030438,-0.00691913,-0.00000005,0.00000010,-0.00000926,-0.0
 0000032,0.,-0.00000617,0.,0.00000004,0.00000668,0.,0.00000001,0.000002
 24,0.00000022,0.00000118,0.00015695,0.00000106,-0.00000149,-0.00052410
 ,-0.00000002,0.00000001,0.00000955,-0.00000002,0.,0.00000339,-0.000000
 03,0.00000002,0.00000503,0.00000002,0.,0.00000582,-0.00000560,-0.00000
 649,-0.00091645,0.00102024,-0.00030292,0.00783422,-0.00004718,-0.00010
 359,0.00000021,-0.00002761,-0.00006193,0.00000012,-0.00012140,0.000189
 15,-0.00000072,0.00005310,-0.00000931,0.00000012,0.00023699,0.00013472
 ,0.00000002,-0.00017220,0.00025554,-0.00000097,-0.00001658,-0.00001595
 ,0.00000001,0.00001469,0.00000934,0.00000002,0.00001186,-0.00000974,0.
 00000004,0.00001401,0.00002713,-0.00000005,-0.00016050,0.00003571,-0.0
 0000034,-0.00006493,-0.00016996,0.00000038,0.00005010,-0.00000985,0.00
 000012,-0.00007077,-0.00000206,-0.00000010,-0.00000401,0.00001556,0.00
 000001,-0.00001601,0.00010528,-0.00000031,-0.00132726,-0.00023136,-0.0
 0000450,0.00215009,0.00270855,-0.00000537,-0.03198820,0.00224946,-0.00
 005264,0.00581745,-0.00457632,0.00001879,-0.00251702,0.00038597,-0.000
 00417,0.00101205,-0.00044264,0.00000304,0.00012078,-0.00025456,0.00000
 092,-0.00020566,0.00026424,-0.00000096,-0.00010705,-0.00018795,0.00000
 035,0.00016797,-0.00036252,0.00000125,0.00019795,0.00000529,0.00000028
 ,0.00011350,0.00015197,-0.00000024,-0.49132959,-0.08707414,-0.00051313
 ,-0.00242566,0.00002945,-0.00000264,0.00001049,-0.00000493,0.00000003,
 -0.00000630,0.00001666,-0.00000007,0.00000405,-0.00000840,0.00000002,-
 0.00001651,-0.00000788,-0.00000002,0.00016533,0.00003426,0.00000108,0.
 00026323,-0.00039080,0.00000123,0.00003590,0.00004748,-0.00000009,0.00
 001649,0.00006417,-0.00000015,-0.00003682,0.00000869,-0.00000009,-0.00
 003382,-0.00002185,0.,0.52072068,0.00000050,0.00000295,-0.00000002,-0.
 00000045,0.00001723,-0.00000004,0.00002427,-0.00000782,0.00000007,-0.0
 0001316,0.00000971,-0.00000007,-0.00005863,-0.00005284,0.00000006,0.00
 007153,-0.00007024,0.00000031,-0.00000539,-0.00000329,-0.00000002,-0.0
 0000033,-0.00000323,0.00000002,-0.00003212,-0.00002941,0.00000003,-0.0
 0002921,-0.00005308,0.00000010,0.00014639,0.00000630,0.00000020,0.0000
 4926,0.00015751,-0.00000037,-0.00003984,0.00002351,-0.00000015,0.00013
 414,0.00001798,0.00000015,-0.00010932,0.00000119,-0.00000030,0.0002933
 7,-0.00034978,0.00000136,0.00056094,0.00166894,0.00000130,0.00334570,-
 0.00663681,0.00002733,0.04276253,0.00579963,0.00004549,0.00982577,-0.0
 0374632,0.00002982,-0.00049049,0.00073875,-0.00000498,-0.00015658,-0.0
 0069769,0.00000140,0.00004006,-0.00002629,0.00000014,-0.00020319,0.000
 00240,-0.00000054,0.00002837,0.00007921,-0.00000019,-0.00005141,0.0000
 9465,-0.00000035,-0.00021353,-0.00001193,-0.00000029,-0.00007785,-0.00
 011999,0.00000020,-0.13857770,-0.07519755,-0.00002703,-0.00215373,0.00
 003134,-0.00001052,-0.00000283,-0.00000063,0.,0.00000220,-0.00001650,0
 .00000007,-0.00000744,0.00000624,-0.00000002,0.00000832,0.00000797,0.0
 0000002,0.00002591,-0.00001241,-0.00000139,0.00002009,-0.00003866,0.00
 000055,-0.00000289,-0.00002001,0.00000008,0.00000701,-0.00002305,0.000
 00009,0.00002914,-0.00001320,0.00000009,0.00002079,0.00002630,-0.00000
 002,0.08709760,0.07711876,-0.00000008,-0.00000019,-0.00000365,-0.00000
 005,-0.00000015,0.00000344,-0.00000028,0.00000035,0.00000355,0.0000001
 4,-0.00000007,-0.00000921,0.00000056,0.00000038,0.00000337,-0.00000049
 ,0.00000063,0.00000286,0.,-0.00000003,-0.00000671,0.00000002,0.0000000
 2,0.00000015,0.00000011,0.00000006,-0.00000071,0.00000011,0.00000018,-
 0.00000398,-0.00000067,0.00000005,0.00000165,-0.00000025,-0.00000071,0
 .00000250,0.00000021,-0.00000011,-0.00000982,-0.00000049,-0.00000005,0
 .00000215,0.00000034,-0.00000005,-0.00002298,-0.00000077,0.00000098,-0
 .00005930,-0.00000679,-0.00000016,0.00177615,-0.00000799,0.00002643,0.
 00128728,-0.00016569,-0.00001753,-0.00197315,-0.00001978,0.00000747,0.
 00164172,-0.00000159,-0.00000310,-0.00072719,0.00000243,0.00000090,-0.
 00007880,0.00000009,-0.00000036,0.00000163,0.00000034,0.00000025,-0.00
 007677,-0.00000024,-0.00000055,-0.00000837,0.00000043,-0.00000089,-0.0
 0000565,0.00000092,0.00000002,-0.00000617,0.00000042,0.00000056,-0.000
 00927,-0.00037039,0.00005265,-0.00679102,0.00000506,-0.00000566,-0.001
 45371,0.00000002,0.,0.00000225,-0.00000003,0.00000009,0.00000651,0.000
 00002,-0.00000002,0.00000343,-0.00000006,0.,0.00000961,0.00000109,-0.0
 0000134,-0.00052313,0.00000009,-0.00000009,0.00015379,0.00000005,0.000
 00016,0.00000971,0.,0.00000018,0.00000503,-0.00000015,0.00000007,0.000
 00542,-0.00000012,-0.00000009,0.00000705,0.00055738,-0.00005493,0.0077
 6267,-0.00002753,-0.00007754,0.00000017,-0.00000886,-0.00003528,0.0000
 0008,-0.00010490,0.00013507,-0.00000055,0.00007032,-0.00003455,0.00000
 023,0.00020902,0.00016624,-0.00000011,-0.00016511,0.00022608,-0.000000
 88,-0.00001503,-0.00002817,0.00000006,0.00002349,0.00002438,-0.0000000
 3,0.00002669,0.00000711,0.00000002,0.00004536,0.00005768,-0.00000009,-
 0.00021057,-0.00000037,-0.00000031,-0.00007788,-0.00019718,0.00000045,
 0.00007564,-0.00002235,0.00000018,-0.00017934,-0.00000080,-0.00000027,
 0.00015593,0.00001894,0.00000025,-0.00003264,0.00010257,-0.00000026,0.
 00042774,0.00024676,-0.00000019,0.00008922,-0.00189891,0.00000280,-0.0
 0677466,0.00298290,-0.00002142,-0.02480791,-0.04460159,0.00010640,0.00
 381383,-0.00100220,0.00000910,-0.00062297,-0.00003619,-0.00000102,0.00
 000678,-0.00010217,0.00000035,0.00029940,-0.00000113,0.00000051,-0.000
 12669,-0.00023346,0.00000046,0.00014086,-0.00030920,0.00000108,0.00028
 838,0.00000984,0.00000039,0.00012126,0.00016253,-0.00000026,0.00144051
 ,0.00184857,-0.00000244,-0.12192937,-0.15630695,0.00032476,0.00000865,
 -0.00000285,0.00000001,-0.00000682,0.00002888,-0.00000013,0.00001126,-
 0.00000965,0.00000004,-0.00001560,-0.00001176,0.,-0.00040216,0.0001040
 6,-0.00000039,-0.00045130,0.00192462,-0.00000546,0.00004725,0.00005185
 ,-0.00000011,0.00001205,0.00006062,-0.00000016,-0.00004614,0.00001763,
 -0.00000012,-0.00003608,-0.00002945,0.00000002,-0.00048164,-0.00226783
 ,0.00000608,0.14920957,-0.00002385,0.00000112,-0.00000005,0.00003603,0
 .00002977,-0.00000002,-0.00001542,0.00000894,-0.00000002,0.00004382,-0
 .00001733,0.00000008,0.00003739,0.00004640,-0.00000006,-0.00002748,0.0
 0001518,-0.00000007,-0.00000135,-0.00000971,0.00000003,-0.00001030,0.0
 0000751,-0.00000007,0.00004245,0.00005706,-0.00000009,0.00003290,0.000
 03770,-0.00000007,-0.00009647,-0.00002915,-0.00000005,-0.00000845,-0.0
 0007261,0.00000021,0.00001536,-0.00002291,0.00000007,-0.00012753,0.000
 01139,-0.00000021,0.00013228,0.00001624,0.00000018,-0.00016291,-0.0001
 2705,0.00000009,0.00055089,-0.00076198,0.00000345,-0.00130065,0.000182
 14,0.00000054,0.00438313,0.00016847,0.00001286,0.00230090,0.00268540,-
 0.00001347,0.00439111,0.00377362,-0.00000482,0.00058004,-0.00060426,0.
 00000002,0.00000844,-0.00012698,0.00000029,0.00006004,0.00017456,-0.00
 000043,-0.00006783,-0.00008579,0.00000007,-0.00000406,-0.00002246,0.00
 000003,0.00016418,0.00000305,0.00000020,0.00002222,0.00002736,-0.00000
 006,-0.00170940,0.00066050,-0.00000415,-0.20781116,-0.46484593,0.00118
 862,-0.00000194,0.00000560,0.,-0.00000211,-0.00001588,0.00000011,0.000
 01198,-0.00000317,0.00000004,-0.00000728,-0.00000821,0.00000003,0.0000
 2947,0.00008392,-0.00000110,-0.00062548,-0.00119166,0.00000370,0.00003
 531,-0.00000057,0.00000013,0.00001061,0.00000415,0.00000003,-0.0000186
 6,0.00001561,-0.00000005,-0.00000900,-0.00001381,0.00000004,0.00010955
 ,0.00132015,-0.00000536,0.19903324,0.45862360,0.00000002,-0.00000011,-
 0.00000344,-0.00000009,-0.00000013,-0.00000151,-0.00000012,0.00000019,
 0.00001188,0.00000002,-0.00000005,-0.00001617,0.00000024,0.00000016,0.
 00000053,-0.00000021,0.00000031,0.00000573,0.,-0.00000001,-0.00000475,
 0.00000005,0.,-0.00000184,-0.00000003,-0.00000008,0.00000006,0.,0.,-0.
 00000461,-0.00000015,0.00000007,0.00000167,-0.00000010,-0.00000018,0.0
 0000241,0.00000009,-0.00000002,-0.00000630,-0.00000002,-0.00000001,0.0
 0000441,-0.00000001,-0.00000004,-0.00001248,0.00000026,0.00000044,-0.0
 0002149,-0.00000045,0.00000116,0.00025441,-0.00000090,-0.00000119,0.00
 105005,-0.00002550,0.00000872,0.00182763,-0.00005311,-0.00008961,-0.00
 209101,-0.00000781,-0.00001344,-0.00048636,-0.00000023,0.00000127,-0.0
 0065346,0.,0.00000016,-0.00002173,0.00000017,-0.00000060,-0.00007142,0
 .,-0.00000023,-0.00002181,0.00000024,-0.00000044,-0.00001018,0.0000001
 5,0.,-0.00000565,0.00000016,0.00000019,-0.00000717,0.00000330,0.000001
 66,0.00029466,0.00050187,0.00127374,-0.00183341,0.00000001,0.,0.000003
 81,-0.00000005,0.00000015,0.00002524,-0.00000001,0.,0.00000322,-0.0000
 0002,0.00000002,0.00000587,-0.00000048,-0.00000099,-0.00034427,0.00000
 100,0.00000688,0.00038467,-0.00000005,0.00000015,0.00002618,-0.0000000
 2,0.00000011,0.00000971,-0.00000004,0.00000001,0.00000527,-0.00000005,
 0.,0.00000541,0.00000112,-0.00000762,-0.00092234,-0.00041924,-0.001180
 62,0.00261861\\0.00000097,-0.00002530,-0.00000005,-0.00000374,0.000014
 48,0.00000395,0.00001013,0.00000745,0.00000009,0.00000265,-0.00000608,
 -0.00000024,-0.00002907,-0.00000761,0.00000007,0.00001109,0.00003852,-
 0.00000019,-0.00000480,-0.00002285,0.00000135,-0.00001032,0.00002598,-
 0.00001243,0.00000749,-0.00000508,0.00000831,0.00000660,0.00000816,0.0
 0000054,0.00001726,-0.00002258,-0.00000092,-0.00003204,-0.00001216,-0.
 00000063,0.00000847,0.00001098,-0.00000113,-0.00001218,-0.00001762,0.0
 0000379,0.00001004,0.00002404,0.00000089,-0.00000621,-0.00002378,-0.00
 000987,0.00001814,0.00000269,0.00000690,-0.00000788,0.00001120,0.00000
 040,0.00003592,-0.00000767,-0.00000128,-0.00001911,-0.00000349,-0.0000
 0095,0.00000102,0.00001001,0.00000043,-0.00000183,-0.00000093,0.000000
 10,-0.00000562,-0.00001022,-0.00000058,-0.00000508,0.00000844,-0.00000
 029,-0.00000208,0.00000790,-0.00000044,-0.00000113,-0.00001949,-0.0000
 0004,-0.00000346,-0.00001525,0.00000192,0.00001806,0.00000858,0.000000
 55,-0.00001201,0.00001770,0.00000035,0.00000541,-0.00001157,0.00000324
 ,-0.00000689,-0.00000554,0.00000008,0.00000017,0.00000083,0.00000003,0
 .00000074,0.00000041,0.00000018,0.00000733,-0.00000408,-0.00000007,-0.
 00000441,-0.00000026,0.00000008,0.00000009,0.00000581,0.00000005,0.000
 00294,-0.00000386,0.00000038,-0.00000875,0.00000434,0.00000002,0.00000
 346,0.00000361,-0.00000153,0.00000100,-0.00000143,-0.00000035,0.000009
 15,0.00000395,-0.00000047,-0.00000156,0.00001177,-0.00000226\\\@


 We find comfort among those who agree with us -- growth among those who don't.
 -- Frank A. Clark
 Job cpu time:       0 days  3 hours 34 minutes 14.2 seconds.
 Elapsed time:       0 days  0 hours  7 minutes 40.3 seconds.
 File lengths (MBytes):  RWF=   1196 Int=      0 D2E=      0 Chk=     21 Scr=      2
 Normal termination of Gaussian 16 at Fri Jan  7 23:01:52 2022.
