 Entering Gaussian System, Link 0=g16
 Input=hhtc_ni_ipa.gjf
 Output=hhtc_ni_ipa.log
 Initial command:
 /curc/sw/gaussian/16/g16/l1.exe "/rc_scratch/xuwa0145/Gau-38648.inp" -scrdir="/rc_scratch/xuwa0145/"
 Entering Link 1 = /curc/sw/gaussian/16/g16/l1.exe PID=     38649.
  
 Copyright (c) 1988,1990,1992,1993,1995,1998,2003,2009,2016,
            Gaussian, Inc.  All Rights Reserved.
  
 This is part of the Gaussian(R) 16 program.  It is based on
 the Gaussian(R) 09 system (copyright 2009, Gaussian, Inc.),
 the Gaussian(R) 03 system (copyright 2003, Gaussian, Inc.),
 the Gaussian(R) 98 system (copyright 1998, Gaussian, Inc.),
 the Gaussian(R) 94 system (copyright 1995, Gaussian, Inc.),
 the Gaussian 92(TM) system (copyright 1992, Gaussian, Inc.),
 the Gaussian 90(TM) system (copyright 1990, Gaussian, Inc.),
 the Gaussian 88(TM) system (copyright 1988, Gaussian, Inc.),
 the Gaussian 86(TM) system (copyright 1986, Carnegie Mellon
 University), and the Gaussian 82(TM) system (copyright 1983,
 Carnegie Mellon University). Gaussian is a federally registered
 trademark of Gaussian, Inc.
  
 This software contains proprietary and confidential information,
 including trade secrets, belonging to Gaussian, Inc.
  
 This software is provided under written license and may be
 used, copied, transmitted, or stored only in accord with that
 written license.
  
 The following legend is applicable only to US Government
 contracts under FAR:
  
                    RESTRICTED RIGHTS LEGEND
  
 Use, reproduction and disclosure by the US Government is
 subject to restrictions as set forth in subparagraphs (a)
 and (c) of the Commercial Computer Software - Restricted
 Rights clause in FAR 52.227-19.
  
 Gaussian, Inc.
 340 Quinnipiac St., Bldg. 40, Wallingford CT 06492
  
  
 ---------------------------------------------------------------
 Warning -- This program may not be used in any manner that
 competes with the business of Gaussian, Inc. or will provide
 assistance to any competitor of Gaussian, Inc.  The licensee
 of this program is prohibited from giving any competitor of
 Gaussian, Inc. access to this program.  By using this program,
 the user acknowledges that Gaussian, Inc. is engaged in the
 business of creating and licensing software in the field of
 computational chemistry and represents and warrants to the
 licensee that it is not a competitor of Gaussian, Inc. and that
 it will not use this program in any manner prohibited above.
 ---------------------------------------------------------------
  

 Cite this work as:
 Gaussian 16, Revision A.03,
 M. J. Frisch, G. W. Trucks, H. B. Schlegel, G. E. Scuseria, 
 M. A. Robb, J. R. Cheeseman, G. Scalmani, V. Barone, 
 G. A. Petersson, H. Nakatsuji, X. Li, M. Caricato, A. V. Marenich, 
 J. Bloino, B. G. Janesko, R. Gomperts, B. Mennucci, H. P. Hratchian, 
 J. V. Ortiz, A. F. Izmaylov, J. L. Sonnenberg, D. Williams-Young, 
 F. Ding, F. Lipparini, F. Egidi, J. Goings, B. Peng, A. Petrone, 
 T. Henderson, D. Ranasinghe, V. G. Zakrzewski, J. Gao, N. Rega, 
 G. Zheng, W. Liang, M. Hada, M. Ehara, K. Toyota, R. Fukuda, 
 J. Hasegawa, M. Ishida, T. Nakajima, Y. Honda, O. Kitao, H. Nakai, 
 T. Vreven, K. Throssell, J. A. Montgomery, Jr., J. E. Peralta, 
 F. Ogliaro, M. J. Bearpark, J. J. Heyd, E. N. Brothers, K. N. Kudin, 
 V. N. Staroverov, T. A. Keith, R. Kobayashi, J. Normand, 
 K. Raghavachari, A. P. Rendell, J. C. Burant, S. S. Iyengar, 
 J. Tomasi, M. Cossi, J. M. Millam, M. Klene, C. Adamo, R. Cammi, 
 J. W. Ochterski, R. L. Martin, K. Morokuma, O. Farkas, 
 J. B. Foresman, and D. J. Fox, Gaussian, Inc., Wallingford CT, 2016.
 
 ******************************************
 Gaussian 16:  ES64L-G16RevA.03 25-Dec-2016
                14-Jan-2022 
 ******************************************
 %chk=hhtc_ni_smd.chk
 %mem=10gb
 %nprocshared=28
 Will use up to   28 processors via shared memory.
 --------------------------------------------------------------
 #opt freq wb97xd def2svp scf=xqc scrf=(smd,solvent=2-propanol)
 --------------------------------------------------------------
 1/18=20,19=15,26=3,38=1/1,3;
 2/9=110,12=2,17=6,18=5,40=1/2;
 3/5=43,7=101,11=2,25=1,30=1,70=32201,71=1,72=73,74=-58/1,2,3;
 4//1;
 5/5=2,8=3,13=1,38=5,53=73/2,8;
 6/7=2,8=2,9=2,10=2,28=1/1;
 7//1,2,3,16;
 1/18=20,19=15,26=3/3(2);
 2/9=110/2;
 99//99;
 2/9=110/2;
 3/5=43,7=101,11=2,25=1,30=1,70=32205,71=1,72=73,74=-58/1,2,3;
 4/5=5,16=3,69=1/1;
 5/5=2,8=3,13=1,38=5,53=73/2,8;
 7//1,2,3,16;
 1/18=20,19=15,26=3/3(-5);
 2/9=110/2;
 6/7=2,8=2,9=2,10=2,19=2,28=1/1;
 99/9=1/99;
 ----------
 [No Title]
 ----------
 Symbolic Z-matrix:
 Charge =  2 Multiplicity = 1
 C                     0.56723   4.19839   0.00103 
 C                     0.60637   2.81775   0.00082 
 C                     1.88386   2.11224  -0.00022 
 C                     3.11164   2.84454  -0.00109 
 C                     3.06286   4.2093   -0.0009 
 C                     1.78288   4.90013   0.00014 
 C                    -0.53898   1.95567   0.00142 
 C                    -1.58971   1.2786    0.00139 
 C                    -2.83475   0.58202   0.00085 
 C                    -4.08291   1.22744   0.00132 
 C                    -5.24024   0.46708   0.00044 
 C                    -5.17717  -0.96361  -0.00095 
 C                    -3.94328  -1.60689  -0.00138 
 C                    -2.77207  -0.84619  -0.00048 
 C                    -1.4615   -1.42457  -0.0007 
 C                    -0.35454  -1.99975  -0.00071 
 C                     0.87061  -2.75218  -0.00039 
 C                     0.9584   -4.12818  -0.00007 
 C                     2.23651  -4.71471   0.00032 
 C                     3.44524  -3.9087    0.00041 
 C                     3.36553  -2.54483   0.0001 
 C                     2.07482  -1.93031  -0.00026 
 C                     1.71721   0.74327  -0.00018 
 C                     1.78156  -0.582    -0.00052 
 O                     4.08706   5.06241  -0.00168 
 O                     1.77138   6.19781   0.00053 
 O                    -6.48622   0.94145   0.00076 
 O                    -6.28812  -1.67099  -0.0018 
 O                     2.34392  -6.00708   0.00056 
 O                     4.54488  -4.66264   0.00079 
 H                    -0.3659    4.76135   0.00188 
 H                     4.06453   2.31303  -0.00188 
 H                    -4.13879   2.31745   0.00236 
 H                    -3.91846  -2.69656  -0.00241 
 H                     0.08139  -4.77543  -0.00016 
 H                     4.26466  -1.92665   0.00015 
 H                     4.95538   4.64095  -0.00226 
 H                     2.67667   6.55847  -0.00028 
 H                    -6.53648   1.90459   0.00162 
 H                    -7.06481  -1.09042  -0.00137 
 H                     3.27862  -6.2836    0.00079 
 H                     5.37027  -4.16244   0.00098 
 Ni                    0.02615  -0.00198   0.00018 
 

 GradGradGradGradGradGradGradGradGradGradGradGradGradGradGradGradGradGrad
 Berny optimization.
 Initialization pass.
                           ----------------------------
                           !    Initial Parameters    !
                           ! (Angstroms and Degrees)  !
 --------------------------                            --------------------------
 ! Name  Definition              Value          Derivative Info.                !
 --------------------------------------------------------------------------------
 ! R1    R(1,2)                  1.3812         estimate D2E/DX2                !
 ! R2    R(1,6)                  1.4036         estimate D2E/DX2                !
 ! R3    R(1,31)                 1.0898         estimate D2E/DX2                !
 ! R4    R(2,3)                  1.4594         estimate D2E/DX2                !
 ! R5    R(2,7)                  1.4335         estimate D2E/DX2                !
 ! R6    R(3,4)                  1.4296         estimate D2E/DX2                !
 ! R7    R(3,23)                 1.3791         estimate D2E/DX2                !
 ! R8    R(4,5)                  1.3656         estimate D2E/DX2                !
 ! R9    R(4,32)                 1.0911         estimate D2E/DX2                !
 ! R10   R(5,6)                  1.4545         estimate D2E/DX2                !
 ! R11   R(5,25)                 1.333          estimate D2E/DX2                !
 ! R12   R(6,26)                 1.2977         estimate D2E/DX2                !
 ! R13   R(7,8)                  1.25           estimate D2E/DX2                !
 ! R14   R(7,43)                 2.0376         estimate D2E/DX2                !
 ! R15   R(8,9)                  1.4267         estimate D2E/DX2                !
 ! R16   R(8,43)                 2.0618         estimate D2E/DX2                !
 ! R17   R(9,10)                 1.4052         estimate D2E/DX2                !
 ! R18   R(9,14)                 1.4296         estimate D2E/DX2                !
 ! R19   R(10,11)                1.3848         estimate D2E/DX2                !
 ! R20   R(10,33)                1.0914         estimate D2E/DX2                !
 ! R21   R(11,12)                1.4321         estimate D2E/DX2                !
 ! R22   R(11,27)                1.3332         estimate D2E/DX2                !
 ! R23   R(12,13)                1.3915         estimate D2E/DX2                !
 ! R24   R(12,28)                1.317          estimate D2E/DX2                !
 ! R25   R(13,14)                1.3966         estimate D2E/DX2                !
 ! R26   R(13,34)                1.09           estimate D2E/DX2                !
 ! R27   R(14,15)                1.4325         estimate D2E/DX2                !
 ! R28   R(15,16)                1.2475         estimate D2E/DX2                !
 ! R29   R(15,43)                2.0584         estimate D2E/DX2                !
 ! R30   R(16,17)                1.4378         estimate D2E/DX2                !
 ! R31   R(16,43)                2.0337         estimate D2E/DX2                !
 ! R32   R(17,18)                1.3788         estimate D2E/DX2                !
 ! R33   R(17,22)                1.4579         estimate D2E/DX2                !
 ! R34   R(18,19)                1.4063         estimate D2E/DX2                !
 ! R35   R(18,35)                1.09           estimate D2E/DX2                !
 ! R36   R(19,20)                1.4528         estimate D2E/DX2                !
 ! R37   R(19,29)                1.2968         estimate D2E/DX2                !
 ! R38   R(20,21)                1.3662         estimate D2E/DX2                !
 ! R39   R(20,30)                1.3333         estimate D2E/DX2                !
 ! R40   R(21,22)                1.4295         estimate D2E/DX2                !
 ! R41   R(21,36)                1.0911         estimate D2E/DX2                !
 ! R42   R(22,24)                1.3798         estimate D2E/DX2                !
 ! R43   R(23,24)                1.3268         estimate D2E/DX2                !
 ! R44   R(23,43)                1.848          estimate D2E/DX2                !
 ! R45   R(24,43)                1.8487         estimate D2E/DX2                !
 ! R46   R(25,37)                0.9652         estimate D2E/DX2                !
 ! R47   R(26,38)                0.9745         estimate D2E/DX2                !
 ! R48   R(27,39)                0.9645         estimate D2E/DX2                !
 ! R49   R(28,40)                0.9697         estimate D2E/DX2                !
 ! R50   R(29,41)                0.9747         estimate D2E/DX2                !
 ! R51   R(30,42)                0.9651         estimate D2E/DX2                !
 ! A1    A(2,1,6)              118.372          estimate D2E/DX2                !
 ! A2    A(2,1,31)             122.7261         estimate D2E/DX2                !
 ! A3    A(6,1,31)             118.9019         estimate D2E/DX2                !
 ! A4    A(1,2,3)              120.5341         estimate D2E/DX2                !
 ! A5    A(1,2,7)              125.3438         estimate D2E/DX2                !
 ! A6    A(3,2,7)              114.122          estimate D2E/DX2                !
 ! A7    A(2,3,4)              120.276          estimate D2E/DX2                !
 ! A8    A(2,3,23)             111.9693         estimate D2E/DX2                !
 ! A9    A(4,3,23)             127.7547         estimate D2E/DX2                !
 ! A10   A(3,4,5)              118.7668         estimate D2E/DX2                !
 ! A11   A(3,4,32)             120.0342         estimate D2E/DX2                !
 ! A12   A(5,4,32)             121.199          estimate D2E/DX2                !
 ! A13   A(4,5,6)              120.4034         estimate D2E/DX2                !
 ! A14   A(4,5,25)             127.7461         estimate D2E/DX2                !
 ! A15   A(6,5,25)             111.8505         estimate D2E/DX2                !
 ! A16   A(1,6,5)              121.6476         estimate D2E/DX2                !
 ! A17   A(1,6,26)             119.4883         estimate D2E/DX2                !
 ! A18   A(5,6,26)             118.8641         estimate D2E/DX2                !
 ! A19   A(2,7,43)             110.8652         estimate D2E/DX2                !
 ! A20   A(9,8,43)             112.3763         estimate D2E/DX2                !
 ! A21   A(8,9,10)             123.4297         estimate D2E/DX2                !
 ! A22   A(8,9,14)             116.7137         estimate D2E/DX2                !
 ! A23   A(10,9,14)            119.8566         estimate D2E/DX2                !
 ! A24   A(9,10,11)            119.3516         estimate D2E/DX2                !
 ! A25   A(9,10,33)            120.2783         estimate D2E/DX2                !
 ! A26   A(11,10,33)           120.3701         estimate D2E/DX2                !
 ! A27   A(10,11,12)           120.7806         estimate D2E/DX2                !
 ! A28   A(10,11,27)           125.8523         estimate D2E/DX2                !
 ! A29   A(12,11,27)           113.3671         estimate D2E/DX2                !
 ! A30   A(11,12,13)           120.059          estimate D2E/DX2                !
 ! A31   A(11,12,28)           119.9622         estimate D2E/DX2                !
 ! A32   A(13,12,28)           119.9788         estimate D2E/DX2                !
 ! A33   A(12,13,14)           119.4616         estimate D2E/DX2                !
 ! A34   A(12,13,34)           118.8393         estimate D2E/DX2                !
 ! A35   A(14,13,34)           121.6991         estimate D2E/DX2                !
 ! A36   A(9,14,13)            120.4906         estimate D2E/DX2                !
 ! A37   A(9,14,15)            116.3261         estimate D2E/DX2                !
 ! A38   A(13,14,15)           123.1833         estimate D2E/DX2                !
 ! A39   A(14,15,43)           112.4675         estimate D2E/DX2                !
 ! A40   A(17,16,43)           110.7673         estimate D2E/DX2                !
 ! A41   A(16,17,18)           125.2072         estimate D2E/DX2                !
 ! A42   A(16,17,22)           114.1305         estimate D2E/DX2                !
 ! A43   A(18,17,22)           120.6623         estimate D2E/DX2                !
 ! A44   A(17,18,19)           118.3013         estimate D2E/DX2                !
 ! A45   A(17,18,35)           122.7771         estimate D2E/DX2                !
 ! A46   A(19,18,35)           118.9216         estimate D2E/DX2                !
 ! A47   A(18,19,20)           121.6534         estimate D2E/DX2                !
 ! A48   A(18,19,29)           119.4013         estimate D2E/DX2                !
 ! A49   A(20,19,29)           118.9452         estimate D2E/DX2                !
 ! A50   A(19,20,21)           120.3511         estimate D2E/DX2                !
 ! A51   A(19,20,30)           111.8685         estimate D2E/DX2                !
 ! A52   A(21,20,30)           127.7804         estimate D2E/DX2                !
 ! A53   A(20,21,22)           118.8044         estimate D2E/DX2                !
 ! A54   A(20,21,36)           121.1647         estimate D2E/DX2                !
 ! A55   A(22,21,36)           120.0309         estimate D2E/DX2                !
 ! A56   A(17,22,21)           120.2275         estimate D2E/DX2                !
 ! A57   A(17,22,24)           112.0421         estimate D2E/DX2                !
 ! A58   A(21,22,24)           127.7304         estimate D2E/DX2                !
 ! A59   A(3,23,43)            120.7242         estimate D2E/DX2                !
 ! A60   A(22,24,43)           120.5554         estimate D2E/DX2                !
 ! A61   A(5,25,37)            114.3161         estimate D2E/DX2                !
 ! A62   A(6,26,38)            111.2148         estimate D2E/DX2                !
 ! A63   A(11,27,39)           113.83           estimate D2E/DX2                !
 ! A64   A(12,28,40)           110.7356         estimate D2E/DX2                !
 ! A65   A(19,29,41)           111.2311         estimate D2E/DX2                !
 ! A66   A(20,30,42)           114.3483         estimate D2E/DX2                !
 ! A67   A(7,43,15)            117.6169         estimate D2E/DX2                !
 ! A68   A(7,43,16)            153.1086         estimate D2E/DX2                !
 ! A69   A(7,43,23)             82.3192         estimate D2E/DX2                !
 ! A70   A(7,43,24)            124.3868         estimate D2E/DX2                !
 ! A71   A(8,43,15)             82.1164         estimate D2E/DX2                !
 ! A72   A(8,43,16)            117.608          estimate D2E/DX2                !
 ! A73   A(8,43,23)            117.8198         estimate D2E/DX2                !
 ! A74   A(8,43,24)            159.8874         estimate D2E/DX2                !
 ! A75   A(15,43,23)           160.0639         estimate D2E/DX2                !
 ! A76   A(15,43,24)           117.9962         estimate D2E/DX2                !
 ! A77   A(16,43,23)           124.5722         estimate D2E/DX2                !
 ! A78   A(16,43,24)            82.5046         estimate D2E/DX2                !
 ! A79   L(2,7,8,17,-1)        184.1707         estimate D2E/DX2                !
 ! A80   L(7,8,9,16,-1)        183.5702         estimate D2E/DX2                !
 ! A81   L(14,15,16,1,-1)      183.6431         estimate D2E/DX2                !
 ! A82   L(15,16,17,2,-1)      184.1001         estimate D2E/DX2                !
 ! A83   L(3,23,24,8,-1)       189.721          estimate D2E/DX2                !
 ! A84   L(22,24,23,11,-1)     189.4909         estimate D2E/DX2                !
 ! A85   L(2,7,8,17,-2)        180.0291         estimate D2E/DX2                !
 ! A86   L(7,8,9,16,-2)        180.0227         estimate D2E/DX2                !
 ! A87   L(14,15,16,1,-2)      179.9899         estimate D2E/DX2                !
 ! A88   L(15,16,17,2,-2)      179.9849         estimate D2E/DX2                !
 ! A89   L(3,23,24,8,-2)       179.9877         estimate D2E/DX2                !
 ! A90   L(22,24,23,11,-2)     179.972          estimate D2E/DX2                !
 ! D1    D(6,1,2,3)              0.0032         estimate D2E/DX2                !
 ! D2    D(6,1,2,7)           -179.9902         estimate D2E/DX2                !
 ! D3    D(31,1,2,3)          -179.9947         estimate D2E/DX2                !
 ! D4    D(31,1,2,7)             0.0119         estimate D2E/DX2                !
 ! D5    D(2,1,6,5)             -0.0031         estimate D2E/DX2                !
 ! D6    D(2,1,6,26)          -179.9894         estimate D2E/DX2                !
 ! D7    D(31,1,6,5)           179.9949         estimate D2E/DX2                !
 ! D8    D(31,1,6,26)            0.0085         estimate D2E/DX2                !
 ! D9    D(1,2,3,4)             -0.0021         estimate D2E/DX2                !
 ! D10   D(1,2,3,23)           179.9956         estimate D2E/DX2                !
 ! D11   D(7,2,3,4)            179.992          estimate D2E/DX2                !
 ! D12   D(7,2,3,23)            -0.0103         estimate D2E/DX2                !
 ! D13   D(1,2,7,43)           179.981          estimate D2E/DX2                !
 ! D14   D(3,2,7,43)            -0.0127         estimate D2E/DX2                !
 ! D15   D(1,2,9,10)            -0.0116         estimate D2E/DX2                !
 ! D16   D(1,2,9,14)           179.9485         estimate D2E/DX2                !
 ! D17   D(3,2,9,10)          -179.9758         estimate D2E/DX2                !
 ! D18   D(3,2,9,14)            -0.0157         estimate D2E/DX2                !
 ! D19   D(2,3,4,5)              0.0008         estimate D2E/DX2                !
 ! D20   D(2,3,4,32)          -179.9991         estimate D2E/DX2                !
 ! D21   D(23,3,4,5)          -179.9965         estimate D2E/DX2                !
 ! D22   D(23,3,4,32)            0.0036         estimate D2E/DX2                !
 ! D23   D(2,3,23,43)            0.0331         estimate D2E/DX2                !
 ! D24   D(4,3,23,43)         -179.9694         estimate D2E/DX2                !
 ! D25   D(3,4,5,6)             -0.0007         estimate D2E/DX2                !
 ! D26   D(3,4,5,25)          -179.9956         estimate D2E/DX2                !
 ! D27   D(32,4,5,6)           179.9992         estimate D2E/DX2                !
 ! D28   D(32,4,5,25)            0.0043         estimate D2E/DX2                !
 ! D29   D(4,5,6,1)              0.0019         estimate D2E/DX2                !
 ! D30   D(4,5,6,26)           179.9883         estimate D2E/DX2                !
 ! D31   D(25,5,6,1)           179.9975         estimate D2E/DX2                !
 ! D32   D(25,5,6,26)           -0.016          estimate D2E/DX2                !
 ! D33   D(4,5,25,37)           -0.0131         estimate D2E/DX2                !
 ! D34   D(6,5,25,37)          179.9916         estimate D2E/DX2                !
 ! D35   D(1,6,26,38)         -179.9934         estimate D2E/DX2                !
 ! D36   D(5,6,26,38)            0.0198         estimate D2E/DX2                !
 ! D37   D(2,7,43,15)         -179.9513         estimate D2E/DX2                !
 ! D38   D(2,7,43,16)         -179.9746         estimate D2E/DX2                !
 ! D39   D(2,7,43,23)            0.0234         estimate D2E/DX2                !
 ! D40   D(2,7,43,24)            0.037          estimate D2E/DX2                !
 ! D41   D(43,8,9,10)         -179.9921         estimate D2E/DX2                !
 ! D42   D(43,8,9,14)           -0.0031         estimate D2E/DX2                !
 ! D43   D(9,8,43,15)           -0.008          estimate D2E/DX2                !
 ! D44   D(9,8,43,16)           -0.0269         estimate D2E/DX2                !
 ! D45   D(9,8,43,23)          179.9678         estimate D2E/DX2                !
 ! D46   D(9,8,43,24)          179.9916         estimate D2E/DX2                !
 ! D47   D(8,9,10,11)          179.9863         estimate D2E/DX2                !
 ! D48   D(8,9,10,33)           -0.0132         estimate D2E/DX2                !
 ! D49   D(14,9,10,11)          -0.0024         estimate D2E/DX2                !
 ! D50   D(14,9,10,33)         179.9981         estimate D2E/DX2                !
 ! D51   D(8,9,14,13)         -179.986          estimate D2E/DX2                !
 ! D52   D(8,9,14,15)            0.0184         estimate D2E/DX2                !
 ! D53   D(10,9,14,13)           0.0035         estimate D2E/DX2                !
 ! D54   D(10,9,14,15)        -179.9921         estimate D2E/DX2                !
 ! D55   D(9,10,11,12)          -0.0007         estimate D2E/DX2                !
 ! D56   D(9,10,11,27)         179.9995         estimate D2E/DX2                !
 ! D57   D(33,10,11,12)        179.9988         estimate D2E/DX2                !
 ! D58   D(33,10,11,27)         -0.001          estimate D2E/DX2                !
 ! D59   D(10,11,12,13)          0.0028         estimate D2E/DX2                !
 ! D60   D(10,11,12,28)       -179.9984         estimate D2E/DX2                !
 ! D61   D(27,11,12,13)       -179.9974         estimate D2E/DX2                !
 ! D62   D(27,11,12,28)          0.0014         estimate D2E/DX2                !
 ! D63   D(10,11,27,39)          0.0047         estimate D2E/DX2                !
 ! D64   D(12,11,27,39)       -179.9951         estimate D2E/DX2                !
 ! D65   D(11,12,13,14)         -0.0017         estimate D2E/DX2                !
 ! D66   D(11,12,13,34)        179.9978         estimate D2E/DX2                !
 ! D67   D(28,12,13,14)        179.9995         estimate D2E/DX2                !
 ! D68   D(28,12,13,34)         -0.001          estimate D2E/DX2                !
 ! D69   D(11,12,28,40)          0.0013         estimate D2E/DX2                !
 ! D70   D(13,12,28,40)       -180.0            estimate D2E/DX2                !
 ! D71   D(12,13,14,9)          -0.0014         estimate D2E/DX2                !
 ! D72   D(12,13,14,15)        179.9939         estimate D2E/DX2                !
 ! D73   D(34,13,14,9)         179.9991         estimate D2E/DX2                !
 ! D74   D(34,13,14,15)         -0.0056         estimate D2E/DX2                !
 ! D75   D(9,14,15,43)          -0.0244         estimate D2E/DX2                !
 ! D76   D(13,14,15,43)        179.9801         estimate D2E/DX2                !
 ! D77   D(9,14,17,18)         179.9235         estimate D2E/DX2                !
 ! D78   D(9,14,17,22)          -0.057          estimate D2E/DX2                !
 ! D79   D(13,14,17,18)         -0.0562         estimate D2E/DX2                !
 ! D80   D(13,14,17,22)        179.9633         estimate D2E/DX2                !
 ! D81   D(14,15,43,7)           0.0067         estimate D2E/DX2                !
 ! D82   D(14,15,43,8)           0.0174         estimate D2E/DX2                !
 ! D83   D(14,15,43,23)       -179.9198         estimate D2E/DX2                !
 ! D84   D(14,15,43,24)       -179.9825         estimate D2E/DX2                !
 ! D85   D(43,16,17,18)        179.9616         estimate D2E/DX2                !
 ! D86   D(43,16,17,22)         -0.0317         estimate D2E/DX2                !
 ! D87   D(17,16,43,7)        -179.9486         estimate D2E/DX2                !
 ! D88   D(17,16,43,8)        -179.9519         estimate D2E/DX2                !
 ! D89   D(17,16,43,23)          0.0538         estimate D2E/DX2                !
 ! D90   D(17,16,43,24)          0.0416         estimate D2E/DX2                !
 ! D91   D(16,17,18,19)       -179.9953         estimate D2E/DX2                !
 ! D92   D(16,17,18,35)          0.0071         estimate D2E/DX2                !
 ! D93   D(22,17,18,19)         -0.0024         estimate D2E/DX2                !
 ! D94   D(22,17,18,35)       -180.0            estimate D2E/DX2                !
 ! D95   D(16,17,22,21)        179.9983         estimate D2E/DX2                !
 ! D96   D(16,17,22,24)         -0.002          estimate D2E/DX2                !
 ! D97   D(18,17,22,21)          0.0047         estimate D2E/DX2                !
 ! D98   D(18,17,22,24)       -179.9957         estimate D2E/DX2                !
 ! D99   D(17,18,19,20)          0.0003         estimate D2E/DX2                !
 ! D100  D(17,18,19,29)       -179.9972         estimate D2E/DX2                !
 ! D101  D(35,18,19,20)        179.998          estimate D2E/DX2                !
 ! D102  D(35,18,19,29)          0.0005         estimate D2E/DX2                !
 ! D103  D(18,19,20,21)         -0.0004         estimate D2E/DX2                !
 ! D104  D(18,19,20,30)       -179.9996         estimate D2E/DX2                !
 ! D105  D(29,19,20,21)        179.9971         estimate D2E/DX2                !
 ! D106  D(29,19,20,30)         -0.0021         estimate D2E/DX2                !
 ! D107  D(18,19,29,41)        179.9979         estimate D2E/DX2                !
 ! D108  D(20,19,29,41)          0.0004         estimate D2E/DX2                !
 ! D109  D(19,20,21,22)          0.0025         estimate D2E/DX2                !
 ! D110  D(19,20,21,36)       -179.9997         estimate D2E/DX2                !
 ! D111  D(30,20,21,22)       -179.9984         estimate D2E/DX2                !
 ! D112  D(30,20,21,36)         -0.0006         estimate D2E/DX2                !
 ! D113  D(19,20,30,42)       -179.9923         estimate D2E/DX2                !
 ! D114  D(21,20,30,42)          0.0085         estimate D2E/DX2                !
 ! D115  D(20,21,22,17)         -0.0046         estimate D2E/DX2                !
 ! D116  D(20,21,22,24)        179.9957         estimate D2E/DX2                !
 ! D117  D(36,21,22,17)        179.9976         estimate D2E/DX2                !
 ! D118  D(36,21,22,24)         -0.002          estimate D2E/DX2                !
 ! D119  D(17,22,24,43)          0.0414         estimate D2E/DX2                !
 ! D120  D(21,22,24,43)       -179.959          estimate D2E/DX2                !
 ! D121  D(3,23,43,7)           -0.0325         estimate D2E/DX2                !
 ! D122  D(3,23,43,8)           -0.0279         estimate D2E/DX2                !
 ! D123  D(3,23,43,15)         179.9018         estimate D2E/DX2                !
 ! D124  D(3,23,43,16)         179.9664         estimate D2E/DX2                !
 ! D125  D(22,24,43,7)         179.947          estimate D2E/DX2                !
 ! D126  D(22,24,43,8)         179.9357         estimate D2E/DX2                !
 ! D127  D(22,24,43,15)         -0.0647         estimate D2E/DX2                !
 ! D128  D(22,24,43,16)         -0.0477         estimate D2E/DX2                !
 --------------------------------------------------------------------------------
 Trust Radius=3.00D-01 FncErr=1.00D-07 GrdErr=1.00D-06 EigMax=2.50D+02 EigMin=1.00D-04
 Number of steps in this run=    258 maximum allowed number of steps=    258.
 GradGradGradGradGradGradGradGradGradGradGradGradGradGradGradGradGradGrad

                          Input orientation:                          
 ---------------------------------------------------------------------
 Center     Atomic      Atomic             Coordinates (Angstroms)
 Number     Number       Type             X           Y           Z
 ---------------------------------------------------------------------
      1          6           0        0.567233    4.198395    0.001025
      2          6           0        0.606373    2.817748    0.000818
      3          6           0        1.883863    2.112236   -0.000224
      4          6           0        3.111642    2.844538   -0.001089
      5          6           0        3.062865    4.209298   -0.000903
      6          6           0        1.782877    4.900131    0.000142
      7          6           0       -0.538983    1.955673    0.001424
      8          6           0       -1.589714    1.278603    0.001390
      9          6           0       -2.834747    0.582016    0.000847
     10          6           0       -4.082912    1.227444    0.001319
     11          6           0       -5.240244    0.467079    0.000441
     12          6           0       -5.177172   -0.963612   -0.000952
     13          6           0       -3.943279   -1.606887   -0.001380
     14          6           0       -2.772065   -0.846187   -0.000477
     15          6           0       -1.461499   -1.424574   -0.000704
     16          6           0       -0.354543   -1.999745   -0.000706
     17          6           0        0.870607   -2.752177   -0.000385
     18          6           0        0.958403   -4.128181   -0.000072
     19          6           0        2.236510   -4.714707    0.000321
     20          6           0        3.445242   -3.908703    0.000408
     21          6           0        3.365527   -2.544825    0.000098
     22          6           0        2.074824   -1.930313   -0.000256
     23          6           0        1.717207    0.743271   -0.000178
     24          6           0        1.781560   -0.581997   -0.000518
     25          8           0        4.087056    5.062409   -0.001679
     26          8           0        1.771381    6.197806    0.000525
     27          8           0       -6.486218    0.941446    0.000757
     28          8           0       -6.288116   -1.670991   -0.001804
     29          8           0        2.343917   -6.007083    0.000564
     30          8           0        4.544876   -4.662638    0.000790
     31          1           0       -0.365900    4.761346    0.001877
     32          1           0        4.064533    2.313030   -0.001882
     33          1           0       -4.138792    2.317446    0.002360
     34          1           0       -3.918464   -2.696560   -0.002408
     35          1           0        0.081390   -4.775430   -0.000156
     36          1           0        4.264659   -1.926645    0.000154
     37          1           0        4.955375    4.640946   -0.002257
     38          1           0        2.676668    6.558474   -0.000283
     39          1           0       -6.536478    1.904592    0.001618
     40          1           0       -7.064810   -1.090416   -0.001366
     41          1           0        3.278615   -6.283603    0.000793
     42          1           0        5.370269   -4.162443    0.000978
     43         28           0        0.026154   -0.001981    0.000179
 ---------------------------------------------------------------------
                    Distance matrix (angstroms):
                    1          2          3          4          5
     1  C    0.000000
     2  C    1.381202   0.000000
     3  C    2.466896   1.459359   0.000000
     4  C    2.882178   2.505413   1.429583   0.000000
     5  C    2.495657   2.823255   2.405767   1.365631   0.000000
     6  C    1.403647   2.391753   2.789723   2.447668   1.454517
     7  C    2.500703   1.433532   2.427900   3.757280   4.248781
     8  C    3.630097   2.681747   3.572210   4.955291   5.498679
     9  C    4.965044   4.103633   4.960530   6.362276   6.923800
    10  C    5.518188   4.951612   6.032020   7.374050   7.742970
    11  C    6.902862   6.301474   7.311596   8.683681   9.107460
    12  C    7.722986   6.909999   7.701887   9.121757   9.729194
    13  C    7.351600   6.346395   6.912848   8.341888   9.105716
    14  C    6.049688   4.983800   5.516333   6.945463   7.720385
    15  C    5.977753   4.719470   4.868313   6.256112   7.225675
    16  C    6.266308   4.912393   4.681757   5.956636   7.087376
    17  C    6.957190   5.576189   4.968823   6.028719   7.298502
    18  C    8.335759   6.954844   6.308667   7.297619   8.598972
    19  C    9.068069   7.706830   6.836045   7.609733   8.962183
    20  C    8.602789   7.300981   6.220097   6.761476   8.127002
    21  C    7.300785   6.030765   4.887079   5.395340   6.760901
    22  C    6.311410   4.969953   4.047057   4.886123   6.218605
    23  C    3.641473   2.353170   1.379072   2.521859   3.718083
    24  C    4.932215   3.597128   2.696175   3.675631   4.959662
    25  O    3.624318   4.141698   3.682062   2.422888   1.332954
    26  O    2.334013   3.575197   4.087118   3.611192   2.371096
    27  O    7.769098   7.336577   8.451568   9.784717  10.092762
    28  O    9.024717   8.226953   9.005223  10.428109  11.046205
    29  O   10.358976   8.994259   8.132342   8.884852  10.241647
    30  O    9.712855   8.453874   7.278730   7.642765   8.994866
    31  H    1.089794   2.173221   3.475517   3.970826   3.472923
    32  H    3.973124   3.494799   2.189896   1.091102   2.144568
    33  H    5.068002   4.771467   6.026151   7.269569   7.446004
    34  H    8.225685   7.133145   7.536015   8.951322   9.819869
    35  H    8.986967   7.611305   7.119610   8.200387   9.466495
    36  H    7.154514   5.991020   4.688363   4.908527   6.252528
    37  H    4.410403   4.715706   3.978513   2.574186   1.941112
    38  H    3.165389   4.275413   4.516367   3.739321   2.380709
    39  H    7.464867   7.200984   8.422901   9.693798   9.872136
    40  H    9.285451   8.609344   9.504511  10.910730  11.430519
    41  H   10.826997   9.485540   8.510902   9.129668  10.495119
    42  H    9.642239   8.450904   7.178205   7.362009   8.683903
    43  Ni   4.235083   2.878806   2.814426   4.197965   5.191964
                    6          7          8          9         10
     6  C    0.000000
     7  C    3.749782   0.000000
     8  C    4.948721   1.249984   0.000000
     9  C    6.322070   2.675344   1.426654   0.000000
    10  C    6.920702   3.617976   2.493723   1.405167   0.000000
    11  C    8.305190   4.931305   3.739645   2.408241   1.384765
    12  C    9.100866   5.480422   4.230531   2.806408   2.449109
    13  C    8.667765   4.927583   3.723618   2.453598   2.837770
    14  C    7.332644   3.582887   2.431602   1.429578   2.453216
    15  C    7.108296   3.503871   2.706217   2.431505   3.728942
    16  C    7.223355   3.959716   3.503315   3.580070   4.931074
    17  C    7.706494   4.914346   4.722327   4.984626   6.354112
    18  C    9.065880   6.265417   5.977141   6.047640   7.355106
    19  C    9.625533   7.224772   7.110538   7.333002   8.674345
    20  C    8.964319   7.089778   7.229034   7.720416   9.113348
    21  C    7.611317   5.958161   6.258835   6.944101   8.349207
    22  C    6.836680   4.683255   4.870932   5.515042   6.920198
    23  C    4.157379   2.561311   3.349972   4.554809   5.820293
    24  C    5.482128   3.438705   3.850626   4.760800   6.137272
    25  O    2.309887   5.572437   6.822237   8.245319   9.025261
    26  O    1.297726   4.830474   5.957812   7.263161   7.679664
    27  O    9.167831   6.033097   4.908098   3.669118   2.420263
    28  O   10.407717   6.797443   5.547531   4.123325   3.641958
    29  O   10.921634   8.468565   8.279775   8.380620   9.676906
    30  O    9.953652   8.345518   8.539996   9.053465  10.446616
    31  H    2.153255   2.811007   3.691506   4.854071   5.128805
    32  H    3.449500   4.617367   5.748092   7.113120   8.219451
    33  H    6.460374   3.617942   2.752634   2.170772   1.091434
    34  H    9.498158   5.750146   4.607061   3.453044   3.927450
    35  H    9.824029   6.759631   6.280438   6.099679   7.305882
    36  H    7.263891   6.176356   6.674376   7.529605   8.923577
    37  H    3.183069   6.115446   7.358230   8.784129   9.661400
    38  H    1.883869   5.614819   6.788156   8.129806   8.608821
    39  H    8.842224   5.997713   4.986215   3.930906   2.545293
    40  H   10.684953   7.201742   5.965646   4.548677   3.776797
    41  H   11.283312   9.080734   8.993753   9.192928  10.517029
    42  H    9.746775   8.505916   8.834384   9.477984  10.881797
    43  Ni   5.207377   2.037594   2.061777   2.919899   4.289045
                   11         12         13         14         15
    11  C    0.000000
    12  C    1.432081   0.000000
    13  C    2.446110   1.391508   0.000000
    14  C    2.795814   2.407972   1.396570   0.000000
    15  C    4.225786   3.744157   2.488467   1.432520   0.000000
    16  C    5.473143   4.932679   3.610175   2.678639   1.247467
    17  C    6.906961   6.306710   4.948251   4.111187   2.683514
    18  C    7.716193   6.903606   5.512115   4.968690   3.628418
    19  C    9.096854   8.308634   6.917249   6.328607   4.949772
    20  C    9.725489   9.111508   7.738773   6.930650   5.499728
    21  C    9.117613   8.687804   7.368743   6.368313   4.955315
    22  C    7.697903   7.316144   6.026788   4.966655   3.572304
    23  C    6.962931   7.102529   6.128976   4.762346   3.847561
    24  C    7.099739   6.969188   5.815856   4.561282   3.350726
    25  O   10.397865  11.051645  10.438668   9.053124   8.536241
    26  O    9.055612   9.978392   9.673188   8.382168   8.279625
    27  O    1.333220   2.311461   3.600076   4.121961   5.553904
    28  O    2.381047   1.317035   2.345713   3.611498   4.832903
    29  O    9.971673   9.055572   7.674019   7.266920   5.956558
    30  O   11.048193  10.401972   9.021441   8.252450   6.823606
    31  H    6.496150   7.478201   7.304248   6.101972   6.282193
    32  H    9.486117   9.805381   8.915761   7.531250   6.671335
    33  H    2.153383   3.441451   3.929202   3.446233   4.601154
    34  H    3.428662   2.141835   1.089956   2.176721   2.766700
    35  H    7.470187   6.494800   5.122268   4.856043   3.689003
    36  H    9.801688   9.490817   8.214164   7.119191   5.748127
    37  H   11.016888  11.579274  10.872969   9.477445   8.829881
    38  H    9.989124  10.874952  10.511747   9.193351   8.991856
    39  H    1.935631   3.174006   4.365223   4.662359   6.069495
    40  H    2.398924   1.891892   3.163969   4.299687   5.613266
    41  H   10.869345   9.990127   8.603919   8.134877   6.788140
    42  H   11.576505  11.021844   9.657797   8.791767   7.359958
    43  Ni   5.287246   5.291440   4.281603   2.922792   2.058369
                   16         17         18         19         20
    16  C    0.000000
    17  C    1.437757   0.000000
    18  C    2.500813   1.378802   0.000000
    19  C    3.752942   2.391070   1.406261   0.000000
    20  C    4.252351   2.822463   2.496505   1.452816   0.000000
    21  C    3.759792   2.503522   2.881191   2.446031   1.366206
    22  C    2.430359   1.457943   2.465161   2.789085   2.406673
    23  C    3.437482   3.596511   4.930196   5.482627   4.962557
    24  C    2.563776   2.353618   3.640468   4.157676   3.719518
    25  O    8.342771   8.450639   9.708523   9.950705   8.994041
    26  O    8.468731   8.995198  10.357941  10.922421  10.244185
    27  O    6.800592   8.231994   9.006859  10.396059  11.052504
    28  O    5.942674   7.239909   7.651786   9.051710   9.987273
    29  O    4.831195   3.572822   2.334507   1.296832   2.369834
    30  O    5.576317   4.141270   3.626077   2.308953   1.333272
    31  H    6.761101   7.614590   8.987629   9.826908   9.470721
    32  H    6.174809   5.988112   7.151031   7.261595   6.252479
    33  H    5.740966   7.127073   8.217512   9.491873   9.812365
    34  H    3.631403   4.789394   5.082654   6.477394   7.462805
    35  H    2.809709   2.171731   1.089992   2.155975   3.473718
    36  H    4.619780   3.493006   3.972164   3.447706   2.144761
    37  H    8.502588   8.446514   9.637083   9.742714   8.681993
    38  H    9.079171   9.484202  10.823910  11.281771  10.495356
    39  H    7.311646   8.749309   9.621205  10.990015  11.551153
    40  H    6.771600   8.107545   8.579042   9.982487  10.881357
    41  H    5.617052   4.274280   3.166896   1.883459   2.380738
    42  H    6.119701   4.715486   4.411999   3.182050   1.941678
    43  Ni   2.033714   2.876922   4.230203   5.205330   5.191593
                   21         22         23         24         25
    21  C    0.000000
    22  C    1.429524   0.000000
    23  C    3.678116   2.697395   0.000000
    24  C    2.522230   1.379841   1.326830   0.000000
    25  O    7.641375   7.276485   4.926575   6.097100   0.000000
    26  O    8.886782   8.133781   5.454804   6.779811   2.579047
    27  O   10.450405   9.029864   8.205818   8.406963  11.347972
    28  O    9.693112   8.366960   8.361451   8.142824  12.368624
    29  O    3.609836   4.085641   6.779384   5.454155  11.205900
    30  O    2.424045   3.683308   6.100784   4.928240   9.735818
    31  H    8.203882   7.122881   4.525955   5.758724   4.463123
    32  H    4.907888   4.686673   2.823842   3.686889   2.749471
    33  H    8.941839   7.526785   6.063890   6.592219   8.671760
    34  H    7.285572   6.042073   6.602517   6.079610  11.148540
    35  H    3.970032   3.473970   5.756037   4.524982  10.622073
    36  H    1.091139   2.189838   3.690252   2.823802   6.991310
    37  H    7.359547   7.174888   5.067308   6.111648   0.965199
    38  H    9.129325   8.510095   5.893823   7.196356   2.056066
    39  H   10.855737   9.426612   8.334986   8.681756  11.082928
    40  H   10.531251   9.178145   8.971412   8.860968  12.736615
    41  H    3.739788   4.516663   7.198260   5.894869  11.374778
    42  H    2.575981   3.980247   6.116444   5.069362   9.313675
    43  Ni   4.197317   2.813452   1.847988   1.848748   6.491454
                   26         27         28         29         30
    26  O    0.000000
    27  O    9.788629   0.000000
    28  O   11.263812   2.619939   0.000000
    29  O   12.218311  11.236251   9.659901   0.000000
    30  O   11.208993  12.372986  11.238491   2.579099   0.000000
    31  H    2.575148   7.214564   8.743433  11.104151  10.626721
    32  H    4.511101  10.639530  11.092780   8.496164   6.992187
    33  H    7.070173   2.720990   4.530700  10.550986  11.141260
    34  H   10.558603   4.452916   2.582062   7.083572   8.688705
    35  H   11.102611   8.707247   7.085771   2.576043   4.464911
    36  H    8.498420  11.126873  10.555871   4.509903   2.750305
    37  H    3.544240  12.024823  12.894054  10.963587   9.312636
    38  H    0.974488  10.747534  12.169283  12.569962  11.375568
    39  H    9.351589   0.964457   3.584200  11.893528  12.881185
    40  H   11.454102   2.112637   0.969702  10.615920  12.146834
    41  H   12.572085  12.147152  10.620666   0.974743   2.056926
    42  H   10.967532  12.908368  11.921631   3.544221   0.965126
    43  Ni   6.440743   6.580353   6.531126   6.436868   6.491577
                   31         32         33         34         35
    31  H    0.000000
    32  H    5.061917   0.000000
    33  H    4.495260   8.203327   0.000000
    34  H    8.260817   9.424661   5.018847   0.000000
    35  H    9.547260   8.130910   8.253413   4.507831   0.000000
    36  H    8.134575   4.244396   9.414367   8.219263   5.061158
    37  H    5.322639   2.492547   9.386296  11.514513  10.603012
    38  H    3.533680   4.466539   8.027255  11.364481  11.627246
    39  H    6.799785  10.608877   2.432971   5.293828   9.403131
    40  H    8.894859  11.638115   4.491672   3.532590   8.040367
    41  H   11.630709   8.632484  11.357639   8.041445   3.535086
    42  H   10.608376   6.605808  11.507007   9.403690   5.324284
    43  Ni   4.779434   4.654867   4.767234   4.777109   4.773769
                   36         37         38         39         40
    36  H    0.000000
    37  H    6.603813   0.000000
    38  H    8.632437   2.978158   0.000000
    39  H   11.460495  11.813142  10.321855   0.000000
    40  H   11.360288  13.316657  12.385553   3.041252   0.000000
    41  H    4.467143  11.052480  12.856177  12.782120  11.573921
    42  H    2.494227   8.813161  11.054119  13.363366  12.808924
    43  Ni   4.655025   6.771558   7.075648   6.833971   7.174013
                   41         42         43
    41  H    0.000000
    42  H    2.978982   0.000000
    43  Ni   7.073703   6.772666   0.000000
 Stoichiometry    C24H12NiO6(2+)
 Framework group  C1[X(C24H12NiO6)]
 Deg. of freedom   123
 Full point group                 C1      NOp   1
 Largest Abelian subgroup         C1      NOp   1
 Largest concise Abelian subgroup C1      NOp   1
                         Standard orientation:                         
 ---------------------------------------------------------------------
 Center     Atomic      Atomic             Coordinates (Angstroms)
 Number     Number       Type             X           Y           Z
 ---------------------------------------------------------------------
      1          6           0       -0.567232    4.198395   -0.001025
      2          6           0       -0.606372    2.817748   -0.000818
      3          6           0       -1.883862    2.112237    0.000224
      4          6           0       -3.111641    2.844539    0.001089
      5          6           0       -3.062864    4.209299    0.000903
      6          6           0       -1.782876    4.900131   -0.000142
      7          6           0        0.538984    1.955673   -0.001424
      8          6           0        1.589714    1.278603   -0.001390
      9          6           0        2.834747    0.582015   -0.000847
     10          6           0        4.082912    1.227443   -0.001319
     11          6           0        5.240244    0.467077   -0.000441
     12          6           0        5.177172   -0.963614    0.000952
     13          6           0        3.943279   -1.606888    0.001380
     14          6           0        2.772065   -0.846188    0.000477
     15          6           0        1.461499   -1.424574    0.000704
     16          6           0        0.354542   -1.999745    0.000706
     17          6           0       -0.870608   -2.752177    0.000385
     18          6           0       -0.958404   -4.128181    0.000072
     19          6           0       -2.236511   -4.714706   -0.000321
     20          6           0       -3.445243   -3.908702   -0.000408
     21          6           0       -3.365528   -2.544824   -0.000098
     22          6           0       -2.074825   -1.930312    0.000256
     23          6           0       -1.717207    0.743271    0.000178
     24          6           0       -1.781560   -0.581997    0.000518
     25          8           0       -4.087055    5.062410    0.001679
     26          8           0       -1.771379    6.197806   -0.000525
     27          8           0        6.486218    0.941444   -0.000757
     28          8           0        6.288115   -1.670993    0.001804
     29          8           0       -2.343919   -6.007082   -0.000564
     30          8           0       -4.544877   -4.662637   -0.000790
     31          1           0        0.365901    4.761346   -0.001877
     32          1           0       -4.064532    2.313031    0.001882
     33          1           0        4.138793    2.317445   -0.002360
     34          1           0        3.918463   -2.696561    0.002408
     35          1           0       -0.081391   -4.775430    0.000156
     36          1           0       -4.264660   -1.926644   -0.000154
     37          1           0       -4.955374    4.640947    0.002257
     38          1           0       -2.676666    6.558475    0.000283
     39          1           0        6.536479    1.904590   -0.001618
     40          1           0        7.064810   -1.090418    0.001366
     41          1           0       -3.278617   -6.283602   -0.000793
     42          1           0       -5.370270   -4.162441   -0.000978
     43         28           0       -0.026154   -0.001981   -0.000179
 ---------------------------------------------------------------------
 Rotational constants (GHZ):           0.1188399           0.1158236           0.0586562
 Standard basis: def2SVP (5D, 7F)
 There are   546 symmetry adapted cartesian basis functions of A   symmetry.
 There are   511 symmetry adapted basis functions of A   symmetry.
   511 basis functions,   915 primitive gaussians,   546 cartesian basis functions
   115 alpha electrons      115 beta electrons
       nuclear repulsion energy      3292.3168069317 Hartrees.
 NAtoms=   43 NActive=   43 NUniq=   43 SFac= 1.00D+00 NAtFMM=   60 NAOKFM=F Big=F
 Integral buffers will be    131072 words long.
 Raffenetti 2 integral format.
 Two-electron integral symmetry is turned on.
 Nuclear repulsion after empirical dispersion term =     3292.2855222036 Hartrees.
 ------------------------------------------------------------------------------
 Polarizable Continuum Model (PCM)
 =================================
 Model                : PCM.
 Atomic radii         : SMD-Coulomb.
 Polarization charges : Total charges.
 Charge compensation  : None.
 Solution method      : On-the-fly selection.
 Cavity type          : VdW (van der Waals Surface) (Alpha=1.000).
 Cavity algorithm     : GePol (No added spheres)
                        Default sphere list used, NSphG=   43.
                        Lebedev-Laikov grids with approx.  5.0 points / Ang**2.
                        Smoothing algorithm: York/Karplus (Gamma=1.0000).
                        Polarization charges: spherical gaussians, with
                                              point-specific exponents (IZeta= 3).
                        Self-potential: point-specific (ISelfS= 7).
                        Self-field    : sphere-specific E.n sum rule (ISelfD= 2).
 1st derivatives      : Analytical E(r).r(x)/FMM algorithm (CHGder, D1EAlg=3).
                        Cavity 1st derivative terms included.
 Solvent              : 2-Propanol, Eps=  19.264000 Eps(inf)=   1.897782
 ------------------------------------------------------------------------------
 ------------------------------------------------------------------------------
 Atomic radii for non-electrostatic terms: SMD-CDS.
 ------------------------------------------------------------------------------
 Nuclear repulsion after PCM non-electrostatic terms =     3292.2868357866 Hartrees.
 One-electron integrals computed using PRISM.
   1 Symmetry operations used in ECPInt.
 ECPInt:  NShTT=   25878 NPrTT=  101491 LenC2=   20499 LenP2D=   52331.
 LDataN:  DoStor=T MaxTD1= 6 Len=  172
 NBasis=   511 RedAO= T EigKep=  1.78D-04  NBF=   511
 NBsUse=   511 1.00D-06 EigRej= -1.00D+00 NBFU=   511
 ExpMin= 3.81D-02 ExpMax= 7.11D+04 ExpMxC= 1.07D+04 IAcc=3 IRadAn=         5 AccDes= 0.00D+00
 Harris functional with IExCor= 4639 and IRadAn=       5 diagonalized for initial guess.
 HarFok:  IExCor= 4639 AccDes= 0.00D+00 IRadAn=         5 IDoV= 1 UseB2=F ITyADJ=14
 ICtDFT=  3500011 ScaDFX=  1.000000  1.000000  1.000000  1.000000
 FoFCou: FMM=F IPFlag=           0 FMFlag=      100000 FMFlg1=           0
         NFxFlg=           0 DoJE=T BraDBF=F KetDBF=T FulRan=T
         wScrn=  0.000000 ICntrl=       500 IOpCl=  0 I1Cent=   200000004 NGrid=           0
         NMat0=    1 NMatS0=      1 NMatT0=    0 NMatD0=    1 NMtDS0=    0 NMtDT0=    0
 Petite list used in FoFCou.
 Requested convergence on RMS density matrix=1.00D-08 within  32 cycles.
 Requested convergence on MAX density matrix=1.00D-06.
 Requested convergence on             energy=1.00D-06.
 No special actions if energy rises.
 Inv3:  Mode=1 IEnd=    34374675.
 Iteration    1 A*A^-1 deviation from unit magnitude is 3.33D-15 for    109.
 Iteration    1 A*A^-1 deviation from orthogonality  is 2.44D-15 for   3271    480.
 Iteration    1 A^-1*A deviation from unit magnitude is 3.33D-15 for   1529.
 Iteration    1 A^-1*A deviation from orthogonality  is 3.04D-14 for   3366   3271.
 EnCoef did   100 forward-backward iterations
 Rare condition: small coef for last iteration:  0.000D+00
 Restarting incremental Fock formation.
 Error on total polarization charges =  0.03945
 SCF Done:  E(RwB97XD) =  -2879.36402316     A.U. after   28 cycles
            NFock= 28  Conv=0.59D-08     -V/T= 2.0055
 SMD-CDS (non-electrostatic) energy       (kcal/mol) =       0.82
 (included in total energy above)
 QCSCF skips out because SCF is already converged.

 **********************************************************************

            Population analysis using the SCF density.

 **********************************************************************

 Orbital symmetries:
       Occupied  (A) (A) (A) (A) (A) (A) (A) (A) (A) (A) (A) (A)
                 (A) (A) (A) (A) (A) (A) (A) (A) (A) (A) (A) (A)
                 (A) (A) (A) (A) (A) (A) (A) (A) (A) (A) (A) (A)
                 (A) (A) (A) (A) (A) (A) (A) (A) (A) (A) (A) (A)
                 (A) (A) (A) (A) (A) (A) (A) (A) (A) (A) (A) (A)
                 (A) (A) (A) (A) (A) (A) (A) (A) (A) (A) (A) (A)
                 (A) (A) (A) (A) (A) (A) (A) (A) (A) (A) (A) (A)
                 (A) (A) (A) (A) (A) (A) (A) (A) (A) (A) (A) (A)
                 (A) (A) (A) (A) (A) (A) (A) (A) (A) (A) (A) (A)
                 (A) (A) (A) (A) (A) (A) (A)
       Virtual   (A) (A) (A) (A) (A) (A) (A) (A) (A) (A) (A) (A)
                 (A) (A) (A) (A) (A) (A) (A) (A) (A) (A) (A) (A)
                 (A) (A) (A) (A) (A) (A) (A) (A) (A) (A) (A) (A)
                 (A) (A) (A) (A) (A) (A) (A) (A) (A) (A) (A) (A)
                 (A) (A) (A) (A) (A) (A) (A) (A) (A) (A) (A) (A)
                 (A) (A) (A) (A) (A) (A) (A) (A) (A) (A) (A) (A)
                 (A) (A) (A) (A) (A) (A) (A) (A) (A) (A) (A) (A)
                 (A) (A) (A) (A) (A) (A) (A) (A) (A) (A) (A) (A)
                 (A) (A) (A) (A) (A) (A) (A) (A) (A) (A) (A) (A)
                 (A) (A) (A) (A) (A) (A) (A) (A) (A) (A) (A) (A)
                 (A) (A) (A) (A) (A) (A) (A) (A) (A) (A) (A) (A)
                 (A) (A) (A) (A) (A) (A) (A) (A) (A) (A) (A) (A)
                 (A) (A) (A) (A) (A) (A) (A) (A) (A) (A) (A) (A)
                 (A) (A) (A) (A) (A) (A) (A) (A) (A) (A) (A) (A)
                 (A) (A) (A) (A) (A) (A) (A) (A) (A) (A) (A) (A)
                 (A) (A) (A) (A) (A) (A) (A) (A) (A) (A) (A) (A)
                 (A) (A) (A) (A) (A) (A) (A) (A) (A) (A) (A) (A)
                 (A) (A) (A) (A) (A) (A) (A) (A) (A) (A) (A) (A)
                 (A) (A) (A) (A) (A) (A) (A) (A) (A) (A) (A) (A)
                 (A) (A) (A) (A) (A) (A) (A) (A) (A) (A) (A) (A)
                 (A) (A) (A) (A) (A) (A) (A) (A) (A) (A) (A) (A)
                 (A) (A) (A) (A) (A) (A) (A) (A) (A) (A) (A) (A)
                 (A) (A) (A) (A) (A) (A) (A) (A) (A) (A) (A) (A)
                 (A) (A) (A) (A) (A) (A) (A) (A) (A) (A) (A) (A)
                 (A) (A) (A) (A) (A) (A) (A) (A) (A) (A) (A) (A)
                 (A) (A) (A) (A) (A) (A) (A) (A) (A) (A) (A) (A)
                 (A) (A) (A) (A) (A) (A) (A) (A) (A) (A) (A) (A)
                 (A) (A) (A) (A) (A) (A) (A) (A) (A) (A) (A) (A)
                 (A) (A) (A) (A) (A) (A) (A) (A) (A) (A) (A) (A)
                 (A) (A) (A) (A) (A) (A) (A) (A) (A) (A) (A) (A)
                 (A) (A) (A) (A) (A) (A) (A) (A) (A) (A) (A) (A)
                 (A) (A) (A) (A) (A) (A) (A) (A) (A) (A) (A) (A)
                 (A) (A) (A) (A) (A) (A) (A) (A) (A) (A) (A) (A)
 The electronic state is 1-A.
 Alpha  occ. eigenvalues -- -300.09710 -35.96150 -31.38691 -31.37769 -31.36510
 Alpha  occ. eigenvalues --  -19.35233 -19.35196 -19.33007 -19.32969 -19.31849
 Alpha  occ. eigenvalues --  -19.31348 -10.44333 -10.44293 -10.41599 -10.41579
 Alpha  occ. eigenvalues --  -10.39946 -10.39837 -10.39837 -10.39754 -10.39729
 Alpha  occ. eigenvalues --  -10.39717 -10.38359 -10.38338 -10.37387 -10.37288
 Alpha  occ. eigenvalues --  -10.36956 -10.36938 -10.36878 -10.36795 -10.35401
 Alpha  occ. eigenvalues --  -10.35342 -10.35102 -10.35050 -10.33718 -10.33272
 Alpha  occ. eigenvalues --   -4.13996  -2.74311  -2.72557  -2.69852  -1.23958
 Alpha  occ. eigenvalues --   -1.23921  -1.20670  -1.19312  -1.19283  -1.17423
 Alpha  occ. eigenvalues --   -1.02614  -1.01758  -1.00293  -0.95418  -0.93724
 Alpha  occ. eigenvalues --   -0.93630  -0.91286  -0.90433  -0.89980  -0.87622
 Alpha  occ. eigenvalues --   -0.86904  -0.85380  -0.80168  -0.79636  -0.79484
 Alpha  occ. eigenvalues --   -0.77594  -0.77231  -0.76191  -0.72519  -0.72002
 Alpha  occ. eigenvalues --   -0.69697  -0.69462  -0.69188  -0.67960  -0.66116
 Alpha  occ. eigenvalues --   -0.65002  -0.64300  -0.63876  -0.62691  -0.62230
 Alpha  occ. eigenvalues --   -0.58729  -0.58688  -0.58578  -0.58213  -0.56888
 Alpha  occ. eigenvalues --   -0.56846  -0.56435  -0.56261  -0.55491  -0.55034
 Alpha  occ. eigenvalues --   -0.54333  -0.53584  -0.52872  -0.51683  -0.51667
 Alpha  occ. eigenvalues --   -0.51242  -0.50889  -0.50837  -0.50743  -0.49490
 Alpha  occ. eigenvalues --   -0.49425  -0.48802  -0.48165  -0.46875  -0.45860
 Alpha  occ. eigenvalues --   -0.45319  -0.44884  -0.44836  -0.44597  -0.40142
 Alpha  occ. eigenvalues --   -0.38652  -0.38575  -0.37417  -0.37268  -0.37085
 Alpha  occ. eigenvalues --   -0.35637  -0.33393  -0.32901  -0.32131  -0.29852
 Alpha virt. eigenvalues --   -0.14633  -0.06703  -0.01202  -0.00168   0.03495
 Alpha virt. eigenvalues --    0.04510   0.04780   0.04942   0.06213   0.06600
 Alpha virt. eigenvalues --    0.07713   0.12698   0.12836   0.12908   0.13695
 Alpha virt. eigenvalues --    0.14001   0.14747   0.14861   0.15363   0.15654
 Alpha virt. eigenvalues --    0.17301   0.17682   0.18577   0.18701   0.19669
 Alpha virt. eigenvalues --    0.20292   0.20535   0.21918   0.22219   0.22844
 Alpha virt. eigenvalues --    0.22901   0.24754   0.25702   0.25789   0.26266
 Alpha virt. eigenvalues --    0.26807   0.27882   0.28356   0.28625   0.28767
 Alpha virt. eigenvalues --    0.29143   0.30193   0.31297   0.31908   0.32255
 Alpha virt. eigenvalues --    0.32980   0.33222   0.33642   0.33986   0.35146
 Alpha virt. eigenvalues --    0.35561   0.36148   0.36298   0.36932   0.39040
 Alpha virt. eigenvalues --    0.40019   0.40510   0.41341   0.42412   0.42626
 Alpha virt. eigenvalues --    0.43019   0.43087   0.44107   0.46630   0.46731
 Alpha virt. eigenvalues --    0.47043   0.47335   0.49734   0.49875   0.50981
 Alpha virt. eigenvalues --    0.53300   0.53866   0.54089   0.54400   0.54813
 Alpha virt. eigenvalues --    0.55486   0.55550   0.56232   0.56883   0.56991
 Alpha virt. eigenvalues --    0.57734   0.58059   0.58255   0.58531   0.58874
 Alpha virt. eigenvalues --    0.59037   0.59252   0.59374   0.59717   0.60615
 Alpha virt. eigenvalues --    0.61312   0.62479   0.62964   0.63150   0.63521
 Alpha virt. eigenvalues --    0.64651   0.65381   0.66346   0.66440   0.67062
 Alpha virt. eigenvalues --    0.67250   0.67406   0.67778   0.67799   0.68836
 Alpha virt. eigenvalues --    0.69419   0.69950   0.70972   0.71280   0.71425
 Alpha virt. eigenvalues --    0.71632   0.72275   0.73259   0.73349   0.73992
 Alpha virt. eigenvalues --    0.74238   0.76885   0.77412   0.77811   0.78205
 Alpha virt. eigenvalues --    0.78369   0.78487   0.79979   0.80015   0.80889
 Alpha virt. eigenvalues --    0.81057   0.82682   0.83053   0.83968   0.84110
 Alpha virt. eigenvalues --    0.84157   0.84431   0.86291   0.86689   0.88995
 Alpha virt. eigenvalues --    0.89700   0.91377   0.92250   0.92772   0.93554
 Alpha virt. eigenvalues --    0.93763   0.95900   0.96273   0.96388   0.97306
 Alpha virt. eigenvalues --    0.98028   0.99017   0.99645   1.00226   1.00422
 Alpha virt. eigenvalues --    1.00575   1.00763   1.01365   1.02405   1.02639
 Alpha virt. eigenvalues --    1.03955   1.06419   1.08271   1.09154   1.09470
 Alpha virt. eigenvalues --    1.09622   1.09635   1.10491   1.10969   1.12519
 Alpha virt. eigenvalues --    1.14509   1.14771   1.15487   1.15700   1.16936
 Alpha virt. eigenvalues --    1.17357   1.18091   1.19045   1.22776   1.23692
 Alpha virt. eigenvalues --    1.24140   1.24874   1.25024   1.25998   1.26488
 Alpha virt. eigenvalues --    1.27269   1.28455   1.29072   1.29094   1.29403
 Alpha virt. eigenvalues --    1.29666   1.30230   1.30970   1.31432   1.31600
 Alpha virt. eigenvalues --    1.31864   1.32155   1.32415   1.37103   1.38411
 Alpha virt. eigenvalues --    1.39155   1.39241   1.39629   1.39839   1.39914
 Alpha virt. eigenvalues --    1.41048   1.41743   1.42302   1.44918   1.45494
 Alpha virt. eigenvalues --    1.46382   1.49935   1.51463   1.52959   1.54006
 Alpha virt. eigenvalues --    1.54754   1.55514   1.57278   1.57408   1.57480
 Alpha virt. eigenvalues --    1.58315   1.59678   1.59790   1.61175   1.61722
 Alpha virt. eigenvalues --    1.62529   1.63118   1.63569   1.63844   1.66794
 Alpha virt. eigenvalues --    1.68580   1.69781   1.70015   1.71063   1.71232
 Alpha virt. eigenvalues --    1.72103   1.73163   1.73236   1.73842   1.74791
 Alpha virt. eigenvalues --    1.75284   1.76391   1.77011   1.78246   1.78485
 Alpha virt. eigenvalues --    1.78724   1.80760   1.81449   1.81687   1.82092
 Alpha virt. eigenvalues --    1.82247   1.84633   1.84796   1.87169   1.87176
 Alpha virt. eigenvalues --    1.87714   1.88449   1.89425   1.90457   1.91074
 Alpha virt. eigenvalues --    1.91100   1.91416   1.92028   1.92112   1.92527
 Alpha virt. eigenvalues --    1.93315   1.93552   1.94548   1.95097   1.95413
 Alpha virt. eigenvalues --    1.96613   1.98079   1.98219   1.98908   1.99108
 Alpha virt. eigenvalues --    2.00059   2.00210   2.00388   2.01854   2.02381
 Alpha virt. eigenvalues --    2.05168   2.05794   2.11651   2.12124   2.12802
 Alpha virt. eigenvalues --    2.13105   2.13725   2.14551   2.15763   2.19206
 Alpha virt. eigenvalues --    2.20786   2.21772   2.23236   2.24293   2.24601
 Alpha virt. eigenvalues --    2.25123   2.25234   2.25759   2.26438   2.26953
 Alpha virt. eigenvalues --    2.27112   2.27713   2.28522   2.28566   2.28960
 Alpha virt. eigenvalues --    2.29525   2.30199   2.30243   2.31030   2.31238
 Alpha virt. eigenvalues --    2.32280   2.32618   2.32856   2.33480   2.33723
 Alpha virt. eigenvalues --    2.36588   2.37141   2.38175   2.43713   2.44281
 Alpha virt. eigenvalues --    2.44417   2.45070   2.45645   2.46911   2.49024
 Alpha virt. eigenvalues --    2.52685   2.56802   2.57491   2.60147   2.60588
 Alpha virt. eigenvalues --    2.62463   2.64256   2.65289   2.66655   2.67085
 Alpha virt. eigenvalues --    2.68319   2.69180   2.69727   2.71925   2.72269
 Alpha virt. eigenvalues --    2.78900   2.80934   2.81780   2.82717   2.84975
 Alpha virt. eigenvalues --    2.86506   2.86958   2.87351   2.88633   2.91419
 Alpha virt. eigenvalues --    2.91961   2.92047   2.92229   2.93249   2.94640
 Alpha virt. eigenvalues --    2.95131   2.96107   2.98271   3.04685   3.04729
 Alpha virt. eigenvalues --    3.06160   3.07449   3.08785   3.09404   3.10458
 Alpha virt. eigenvalues --    3.10656   3.11927   3.14545   3.17987   3.19892
 Alpha virt. eigenvalues --    3.20807   3.21518   3.27013   3.31515   3.35421
 Alpha virt. eigenvalues --    3.35716   3.36977   3.40843   3.42635   3.51775
 Alpha virt. eigenvalues --    3.52401   3.54320   3.58344   3.60775   3.61731
 Alpha virt. eigenvalues --    3.66243   3.66883   3.74816   3.86193   3.86403
 Alpha virt. eigenvalues --    3.88453   3.90435   3.91122   3.93721   5.62548
 Alpha virt. eigenvalues --    5.62832   5.63210   5.64310   5.65675   5.66128
 Alpha virt. eigenvalues --    5.67321
          Condensed to atoms (all electrons):
               1          2          3          4          5          6
     1  C    5.168888   0.292475   0.039141  -0.051088   0.021093   0.267521
     2  C    0.292475   5.442825   0.189155   0.029640  -0.129504   0.133572
     3  C    0.039141   0.189155   5.558678   0.172374   0.140192  -0.130526
     4  C   -0.051088   0.029640   0.172374   5.243402   0.262450   0.050674
     5  C    0.021093  -0.129504   0.140192   0.262450   5.138214   0.095176
     6  C    0.267521   0.133572  -0.130526   0.050674   0.095176   5.033924
     7  C   -0.099369   0.242096  -0.049291   0.013590  -0.002279   0.014197
     8  C   -0.003474  -0.141605   0.003170   0.000104  -0.000068   0.000442
     9  C    0.000147   0.000785  -0.001039   0.000017  -0.000002   0.000017
    10  C   -0.000022   0.000120   0.000010  -0.000000   0.000000   0.000000
    11  C    0.000000   0.000020  -0.000000   0.000000  -0.000000   0.000000
    12  C    0.000000  -0.000003   0.000000   0.000000  -0.000000  -0.000000
    13  C   -0.000000   0.000021  -0.000002  -0.000000   0.000000   0.000000
    14  C    0.000008  -0.000822   0.000161  -0.000001   0.000000  -0.000000
    15  C   -0.000015   0.001240  -0.000559  -0.000000   0.000000   0.000000
    16  C    0.000009  -0.000540   0.000535   0.000007  -0.000000   0.000000
    17  C   -0.000001   0.000116  -0.000394   0.000001  -0.000000   0.000000
    18  C    0.000000  -0.000001   0.000017  -0.000000   0.000000   0.000000
    19  C    0.000000   0.000000  -0.000003   0.000000  -0.000000  -0.000000
    20  C    0.000000  -0.000000   0.000016   0.000000   0.000000  -0.000000
    21  C   -0.000000   0.000001   0.000204  -0.000012   0.000000   0.000000
    22  C    0.000017  -0.000393  -0.009104   0.000204   0.000016  -0.000002
    23  C    0.015821  -0.036551   0.370669  -0.080169   0.016240  -0.002468
    24  C   -0.000424   0.008128  -0.146637   0.000179   0.000275  -0.000027
    25  O    0.003067   0.000062   0.004065  -0.064034   0.435734  -0.093392
    26  O   -0.071623   0.002789  -0.000086   0.004027  -0.080507   0.507387
    27  O    0.000000   0.000000  -0.000000   0.000000  -0.000000  -0.000000
    28  O   -0.000000   0.000000   0.000000  -0.000000   0.000000   0.000000
    29  O   -0.000000   0.000000  -0.000000  -0.000000   0.000000   0.000000
    30  O    0.000000  -0.000000   0.000000   0.000000  -0.000000  -0.000000
    31  H    0.463238  -0.055585   0.012123  -0.002842   0.015168  -0.059217
    32  H   -0.002018   0.011858  -0.047475   0.461476  -0.059987   0.012912
    33  H    0.000016  -0.000204   0.000002   0.000000  -0.000000   0.000000
    34  H    0.000000   0.000000  -0.000000  -0.000000   0.000000  -0.000000
    35  H    0.000000  -0.000000   0.000000   0.000000  -0.000000   0.000000
    36  H    0.000000   0.000001  -0.000228   0.000019   0.000000   0.000000
    37  H   -0.000305  -0.000003   0.000486  -0.015616  -0.003981   0.007972
    38  H    0.007806  -0.000264  -0.000235   0.002236  -0.024301  -0.012969
    39  H    0.000000   0.000000  -0.000000   0.000000  -0.000000   0.000000
    40  H   -0.000000  -0.000000   0.000000   0.000000  -0.000000   0.000000
    41  H   -0.000000   0.000000   0.000000  -0.000000  -0.000000  -0.000000
    42  H    0.000000  -0.000000   0.000000   0.000000   0.000000  -0.000000
    43  Ni   0.002321  -0.030237  -0.042430   0.002568  -0.000393  -0.000432
               7          8          9         10         11         12
     1  C   -0.099369  -0.003474   0.000147  -0.000022   0.000000   0.000000
     2  C    0.242096  -0.141605   0.000785   0.000120   0.000020  -0.000003
     3  C   -0.049291   0.003170  -0.001039   0.000010  -0.000000   0.000000
     4  C    0.013590   0.000104   0.000017  -0.000000   0.000000   0.000000
     5  C   -0.002279  -0.000068  -0.000002   0.000000  -0.000000  -0.000000
     6  C    0.014197   0.000442   0.000017   0.000000   0.000000  -0.000000
     7  C    5.295288   0.552583  -0.150086  -0.004522   0.000530  -0.000116
     8  C    0.552583   5.234942   0.248700  -0.083271   0.013048  -0.002025
     9  C   -0.150086   0.248700   5.515237   0.221880   0.147443  -0.146155
    10  C   -0.004522  -0.083271   0.221880   5.284294   0.218409   0.061144
    11  C    0.000530   0.013048   0.147443   0.218409   5.232725   0.076850
    12  C   -0.000116  -0.002025  -0.146155   0.061144   0.076850   5.096893
    13  C    0.000187   0.013973   0.048418  -0.066069   0.034346   0.302691
    14  C    0.002523  -0.039386   0.241843   0.043580  -0.149719   0.130579
    15  C    0.002400  -0.043615  -0.037574   0.013249  -0.001133   0.014175
    16  C    0.004048   0.002402   0.002019   0.000040  -0.000043   0.000564
    17  C   -0.000534   0.001234  -0.000810   0.000019  -0.000002   0.000019
    18  C    0.000009  -0.000015   0.000008  -0.000000   0.000000   0.000000
    19  C    0.000000   0.000000  -0.000000   0.000000  -0.000000   0.000000
    20  C   -0.000000   0.000000   0.000000   0.000000  -0.000000  -0.000000
    21  C    0.000007  -0.000000  -0.000001  -0.000000   0.000000   0.000000
    22  C    0.000554  -0.000569   0.000162  -0.000001   0.000000  -0.000000
    23  C   -0.040832   0.008118   0.002166  -0.000017   0.000000   0.000000
    24  C    0.011206   0.001118  -0.000806   0.000010   0.000000   0.000000
    25  O    0.000004  -0.000000   0.000000  -0.000000  -0.000000   0.000000
    26  O   -0.000078  -0.000000   0.000000   0.000000  -0.000000  -0.000000
    27  O   -0.000001  -0.000120   0.004675  -0.067153   0.438270  -0.097870
    28  O   -0.000000   0.000004  -0.000110   0.004675  -0.089708   0.484101
    29  O    0.000000  -0.000000  -0.000000   0.000000  -0.000000  -0.000000
    30  O    0.000000  -0.000000  -0.000000  -0.000000   0.000000  -0.000000
    31  H   -0.015225  -0.001726  -0.000138   0.000009   0.000000  -0.000000
    32  H    0.000062   0.000023   0.000000   0.000000  -0.000000   0.000000
    33  H   -0.002233  -0.016832  -0.054311   0.462583  -0.061934   0.014280
    34  H    0.000017  -0.000053   0.014083  -0.003257   0.018651  -0.064077
    35  H   -0.000000  -0.000000  -0.000000   0.000000  -0.000000   0.000000
    36  H    0.000000  -0.000001  -0.000000   0.000000   0.000000  -0.000000
    37  H    0.000000   0.000000   0.000000   0.000000  -0.000000   0.000000
    38  H    0.000010  -0.000000  -0.000000   0.000000   0.000000  -0.000000
    39  H    0.000001  -0.000016   0.000566  -0.016502  -0.005400   0.008473
    40  H    0.000000   0.000005  -0.000261   0.002119  -0.027175  -0.013385
    41  H   -0.000000   0.000000   0.000000   0.000000  -0.000000   0.000000
    42  H    0.000000   0.000000   0.000000  -0.000000   0.000000  -0.000000
    43  Ni   0.154448   0.165048  -0.026487   0.001528  -0.000138  -0.000248
              13         14         15         16         17         18
     1  C   -0.000000   0.000008  -0.000015   0.000009  -0.000001   0.000000
     2  C    0.000021  -0.000822   0.001240  -0.000540   0.000116  -0.000001
     3  C   -0.000002   0.000161  -0.000559   0.000535  -0.000394   0.000017
     4  C   -0.000000  -0.000001  -0.000000   0.000007   0.000001  -0.000000
     5  C    0.000000   0.000000   0.000000  -0.000000  -0.000000   0.000000
     6  C    0.000000  -0.000000   0.000000   0.000000   0.000000   0.000000
     7  C    0.000187   0.002523   0.002400   0.004048  -0.000534   0.000009
     8  C    0.013973  -0.039386  -0.043615   0.002402   0.001234  -0.000015
     9  C    0.048418   0.241843  -0.037574   0.002019  -0.000810   0.000008
    10  C   -0.066069   0.043580   0.013249   0.000040   0.000019  -0.000000
    11  C    0.034346  -0.149719  -0.001133  -0.000043  -0.000002   0.000000
    12  C    0.302691   0.130579   0.014175   0.000564   0.000019   0.000000
    13  C    5.182850   0.269620  -0.097379  -0.005913   0.000077  -0.000020
    14  C    0.269620   5.466853   0.258577  -0.146605   0.000712   0.000133
    15  C   -0.097379   0.258577   5.234748   0.558493  -0.141606  -0.003785
    16  C   -0.005913  -0.146605   0.558493   5.287463   0.237691  -0.098645
    17  C    0.000077   0.000712  -0.141606   0.237691   5.442406   0.295393
    18  C   -0.000020   0.000133  -0.003785  -0.098645   0.295393   5.165120
    19  C    0.000000   0.000017   0.000466   0.014199   0.134008   0.264248
    20  C    0.000000  -0.000002  -0.000072  -0.002286  -0.130114   0.021250
    21  C   -0.000000   0.000017   0.000132   0.013559   0.030218  -0.050810
    22  C    0.000009  -0.000992   0.003423  -0.048835   0.188947   0.038888
    23  C    0.000009  -0.000806   0.001081   0.011295   0.007963  -0.000411
    24  C   -0.000016   0.002103   0.007964  -0.040870  -0.036142   0.015977
    25  O   -0.000000  -0.000000  -0.000000   0.000000  -0.000000   0.000000
    26  O    0.000000  -0.000000  -0.000000   0.000000   0.000000  -0.000000
    27  O    0.002924   0.000226   0.000004  -0.000000   0.000000  -0.000000
    28  O   -0.075879   0.003493  -0.000088  -0.000000   0.000000   0.000000
    29  O    0.000000   0.000000  -0.000000  -0.000078   0.002789  -0.071228
    30  O   -0.000000   0.000000  -0.000000   0.000004   0.000059   0.003040
    31  H    0.000000  -0.000000  -0.000000  -0.000000  -0.000000   0.000000
    32  H    0.000000  -0.000000  -0.000001   0.000000   0.000001   0.000000
    33  H   -0.002285   0.013925  -0.000044   0.000021   0.000000   0.000000
    34  H    0.464022  -0.062686  -0.016378  -0.002090  -0.000177   0.000013
    35  H    0.000010  -0.000134  -0.001769  -0.015115  -0.055348   0.463239
    36  H    0.000000   0.000000   0.000023   0.000058   0.011894  -0.002018
    37  H   -0.000000   0.000000   0.000000   0.000000  -0.000000   0.000000
    38  H    0.000000   0.000000   0.000000  -0.000000   0.000000  -0.000000
    39  H   -0.000343  -0.000013   0.000000   0.000000   0.000000   0.000000
    40  H    0.008643  -0.000257   0.000013  -0.000000  -0.000000  -0.000000
    41  H   -0.000000  -0.000000  -0.000000   0.000010  -0.000265   0.007746
    42  H    0.000000   0.000000   0.000000   0.000000  -0.000003  -0.000304
    43  Ni   0.001802  -0.026904   0.166099   0.155389  -0.030149   0.002294
              19         20         21         22         23         24
     1  C    0.000000   0.000000  -0.000000   0.000017   0.015821  -0.000424
     2  C    0.000000  -0.000000   0.000001  -0.000393  -0.036551   0.008128
     3  C   -0.000003   0.000016   0.000204  -0.009104   0.370669  -0.146637
     4  C    0.000000   0.000000  -0.000012   0.000204  -0.080169   0.000179
     5  C   -0.000000   0.000000   0.000000   0.000016   0.016240   0.000275
     6  C   -0.000000  -0.000000   0.000000  -0.000002  -0.002468  -0.000027
     7  C    0.000000  -0.000000   0.000007   0.000554  -0.040832   0.011206
     8  C    0.000000   0.000000  -0.000000  -0.000569   0.008118   0.001118
     9  C   -0.000000   0.000000  -0.000001   0.000162   0.002166  -0.000806
    10  C    0.000000   0.000000  -0.000000  -0.000001  -0.000017   0.000010
    11  C   -0.000000  -0.000000   0.000000   0.000000   0.000000   0.000000
    12  C    0.000000  -0.000000   0.000000  -0.000000   0.000000   0.000000
    13  C    0.000000   0.000000  -0.000000   0.000009   0.000009  -0.000016
    14  C    0.000017  -0.000002   0.000017  -0.000992  -0.000806   0.002103
    15  C    0.000466  -0.000072   0.000132   0.003423   0.001081   0.007964
    16  C    0.014199  -0.002286   0.013559  -0.048835   0.011295  -0.040870
    17  C    0.134008  -0.130114   0.030218   0.188947   0.007963  -0.036142
    18  C    0.264248   0.021250  -0.050810   0.038888  -0.000411   0.015977
    19  C    5.038101   0.095255   0.051227  -0.131471  -0.000031  -0.002515
    20  C    0.095255   5.138840   0.261526   0.140583   0.000282   0.016275
    21  C    0.051227   0.261526   5.241977   0.171236   0.000107  -0.080207
    22  C   -0.131471   0.140583   0.171236   5.561510  -0.146637   0.369791
    23  C   -0.000031   0.000282   0.000107  -0.146637   5.265531   0.233295
    24  C   -0.002515   0.016275  -0.080207   0.369791   0.233295   5.262237
    25  O   -0.000000  -0.000000   0.000000   0.000000  -0.000104  -0.000000
    26  O    0.000000   0.000000  -0.000000  -0.000000   0.000003  -0.000000
    27  O   -0.000000   0.000000  -0.000000  -0.000000   0.000000   0.000000
    28  O   -0.000000  -0.000000   0.000000  -0.000000  -0.000000  -0.000000
    29  O    0.507905  -0.080568   0.004009  -0.000081  -0.000000   0.000003
    30  O   -0.093817   0.436061  -0.063827   0.004064  -0.000000  -0.000103
    31  H    0.000000  -0.000000   0.000000   0.000000  -0.000030   0.000018
    32  H    0.000000   0.000000   0.000019  -0.000228  -0.018590  -0.000784
    33  H   -0.000000   0.000000   0.000000  -0.000000  -0.000001  -0.000000
    34  H    0.000000  -0.000000   0.000000   0.000001  -0.000000  -0.000001
    35  H   -0.059272   0.015099  -0.002844   0.012166   0.000018  -0.000029
    36  H    0.012957  -0.059638   0.461583  -0.047911  -0.000817  -0.018615
    37  H   -0.000000   0.000000   0.000000   0.000000  -0.000002   0.000001
    38  H   -0.000000  -0.000000  -0.000000   0.000000   0.000007   0.000000
    39  H   -0.000000   0.000000  -0.000000   0.000000   0.000000   0.000000
    40  H    0.000000  -0.000000   0.000000   0.000000  -0.000000   0.000000
    41  H   -0.013010  -0.024192   0.002245  -0.000234   0.000000   0.000007
    42  H    0.007989  -0.003961  -0.015650   0.000479   0.000001  -0.000002
    43  Ni  -0.000428  -0.000389   0.002531  -0.042214   0.232462   0.232262
              25         26         27         28         29         30
     1  C    0.003067  -0.071623   0.000000  -0.000000  -0.000000   0.000000
     2  C    0.000062   0.002789   0.000000   0.000000   0.000000  -0.000000
     3  C    0.004065  -0.000086  -0.000000   0.000000  -0.000000   0.000000
     4  C   -0.064034   0.004027   0.000000  -0.000000  -0.000000   0.000000
     5  C    0.435734  -0.080507  -0.000000   0.000000   0.000000  -0.000000
     6  C   -0.093392   0.507387  -0.000000   0.000000   0.000000  -0.000000
     7  C    0.000004  -0.000078  -0.000001  -0.000000   0.000000   0.000000
[...]
 000858,-0.00000028,0.00000060,-0.00000574,-0.00000161,-0.00000996,-0.0
 0000518,0.00049091,-0.00388545,-0.00543548,0.00012474,-0.00005442,0.00
 031511,-0.00000529,0.00000915,-0.00000388,0.00000149,0.00000006,-0.000
 00360,-0.00000066,-0.00000064,0.00000764,-0.00000008,0.00000014,0.0000
 0242,0.00001772,-0.00002685,-0.00020027,0.00001385,0.00000776,-0.00047
 543,-0.00000063,-0.00000014,0.00000221,0.00000012,0.00000029,0.0000018
 3,-0.00000005,0.00000006,0.00000335,0.00000150,0.00000048,0.00000483,-
 0.00125321,0.00542769,0.00781102,0.00073877,0.00107053,0.00001282,-0.0
 0107988,-0.00114216,-0.00001078,0.00017570,-0.00013866,-0.00000096,0.0
 0008274,0.00016446,0.00000129,0.00014953,-0.00037148,-0.00001158,-0.00
 104396,-0.00056219,0.00000341,0.00178037,0.00136175,0.00000721,-0.0018
 5901,-0.00122243,0.00001376,0.00248315,0.00088498,-0.00001925,-0.00249
 245,0.00095827,0.00004608,0.00135227,0.00423255,0.00009527,-0.04459403
 ,0.01601709,0.00073011,0.00002657,-0.00423463,-0.00010854,-0.00072743,
 -0.00020933,0.00002589,-0.00078001,0.00039078,0.00003991,0.00080101,-0
 .00044555,-0.00000127,-0.00035902,0.00062321,-0.00000564,0.00050468,-0
 .00058708,0.00002398,-0.00053482,0.00047554,-0.00002728,-0.00011989,0.
 00004519,-0.00000673,-0.00006085,0.00004780,-0.00000508,0.00004078,-0.
 00024858,0.00000751,0.00019007,-0.00039819,-0.00000322,0.00001615,0.00
 074084,0.00000507,0.00006204,0.00004403,-0.00000122,0.00017171,0.00051
 626,0.00001378,0.00039297,0.00089973,-0.00013009,-0.31857298,0.2019957
 8,0.00719295,0.00016448,-0.00046631,0.00001727,0.00010296,-0.00003722,
 0.00000102,0.00001637,-0.00000440,-0.00000034,-0.00000122,0.00000486,-
 0.00000132,0.00036184,0.00013653,-0.00000159,0.00015393,-0.00007668,-0
 .00001085,0.00000707,0.00000164,-0.00000047,0.00000148,0.00000069,0.00
 000068,-0.00002191,-0.00000751,0.00000134,-0.00008471,-0.00003896,-0.0
 0000100,0.00050424,-0.00008165,-0.00000780,0.36264290,-0.00032242,-0.0
 0047591,-0.00000507,0.00065182,0.00052097,-0.00000113,-0.00011831,0.00
 023670,0.00000239,-0.00009331,-0.00016332,0.00000015,-0.00016849,0.000
 25923,0.00000912,0.00052820,0.00015500,-0.00000568,-0.00100176,-0.0007
 5653,-0.00000098,0.00123293,0.00058009,-0.00000566,-0.00193112,-0.0003
 4934,0.00001720,0.00275098,0.00036890,-0.00001721,-0.01116230,-0.00147
 726,0.00003103,-0.01995676,0.01690669,0.00067698,-0.00638093,-0.002334
 64,-0.00002825,0.00134600,0.00130868,-0.00003750,-0.00086339,0.0001228
 9,0.00001931,0.00049086,-0.00030558,-0.00001312,-0.00038113,0.00010229
 ,0.00000031,0.00008031,-0.00011190,0.00000265,-0.00021358,-0.00010264,
 -0.00000312,0.00015906,0.00018367,-0.00000104,0.00009863,-0.00012593,0
 .00000717,0.00006457,0.00027183,-0.00000190,-0.00008260,-0.00011555,0.
 00000052,0.00006908,-0.00032952,-0.00000614,-0.00000118,-0.00001621,0.
 00000022,-0.00006550,-0.00014271,-0.00000346,0.00230775,0.00326039,0.0
 0009804,0.25003404,-0.23134097,-0.00788143,-0.00000140,0.00007497,-0.0
 0000190,-0.00004561,0.00000641,-0.00000158,-0.00001065,0.00000172,0.00
 000040,0.00000188,-0.00000405,0.00000080,-0.00005557,-0.00000597,-0.00
 000653,-0.00004138,0.00003165,0.00001425,0.00000455,0.00000261,0.00000
 047,-0.00000247,-0.00000305,0.00000008,0.00000509,0.00000465,-0.000000
 37,0.00002327,0.00000896,-0.00000007,0.00302123,-0.00048367,0.00011953
 ,-0.22003219,0.21390331,-0.00001966,-0.00002872,-0.00001839,0.00003378
 ,0.00003003,0.00005417,-0.00000572,0.00000631,-0.00000845,-0.00000333,
 -0.00000518,-0.00000937,-0.00000725,0.00001114,0.00000536,0.00003037,0
 .00001223,-0.00000347,-0.00005177,-0.00004237,0.00002257,0.00005384,0.
 00003289,-0.00007322,-0.00009580,-0.00000935,-0.00014493,0.00011304,0.
 00003944,-0.00060638,-0.00042701,-0.00011201,0.00047653,-0.00015819,0.
 00033043,-0.00278695,-0.00012464,-0.00006659,0.00199423,0.00008454,-0.
 00002183,0.00193165,-0.00002703,0.00001162,-0.00005218,0.00001595,-0.0
 0001252,-0.00003632,-0.00001763,0.00000053,0.00000021,-0.00000132,0.00
 000002,0.00000903,-0.00000625,-0.00000947,0.00000911,0.00000923,0.0000
 0946,0.00000194,0.00000592,-0.00000795,-0.00001363,0.00000458,0.000017
 47,-0.00002025,-0.00000650,0.00000515,0.00001788,-0.00000006,-0.000027
 78,0.00001904,0.00000035,-0.00000001,-0.00000235,-0.00000431,-0.000011
 33,-0.00000166,-0.00011050,0.00042591,-0.00005916,0.00842451,-0.007627
 21,-0.00787051,-0.00000123,0.00000815,-0.00000497,-0.00000265,0.000000
 40,-0.00000109,-0.00000068,0.00000002,0.00000226,0.00000004,-0.0000001
 0,-0.00000054,0.00000189,-0.00000547,0.00021913,-0.00000937,0.00001699
 ,-0.00058945,0.00000021,0.00000013,0.00000080,-0.00000010,-0.00000021,
 -0.00000018,0.00000022,0.00000037,0.00000198,0.00000209,0.00000061,0.0
 0000391,0.00012245,0.00000149,-0.00096624,-0.00784069,0.00700582,0.008
 55190,-0.00062815,-0.00074097,-0.00002002,-0.00127430,0.00088911,0.000
 05338,0.00056126,-0.00157857,-0.00002831,0.00046202,0.00052350,-0.0000
 3017,0.00155649,-0.00055136,-0.00004566,-0.00039398,0.00185204,0.00006
 672,-0.00009270,0.00057626,0.00007574,-0.00055293,0.00040617,0.0000902
 2,0.00026881,0.00057598,0.00000748,0.00005519,0.00010519,-0.00000579,-
 0.00036092,0.00057231,0.00002569,-0.00021933,-0.00066280,-0.00001487,-
 0.00008830,-0.00010840,-0.00000706,0.00061576,-0.00058260,-0.00003133,
 -0.00080736,-0.00036773,0.00003469,0.00056750,-0.00120470,0.00004305,0
 .00088344,0.00639046,-0.00015990,0.00686287,-0.00772389,0.00028481,-0.
 00412890,0.01945674,-0.00050517,0.00048374,-0.01245722,0.00035049,-0.0
 0366401,0.00482185,-0.00021476,0.00097719,-0.00631840,0.00013733,0.001
 11483,0.00056470,0.00004242,-0.00206886,0.00454994,0.00002212,-0.00087
 905,-0.00042411,0.00000889,-0.00022198,-0.00158739,-0.00004481,0.00050
 711,-0.00028201,-0.00001212,0.00046079,0.00025195,0.00000049,-0.455974
 18,0.12100525,-0.01167603,0.00456207,0.00290337,-0.00015869,0.00000820
 ,-0.00001451,-0.00000044,-0.00003247,0.00001214,0.00000074,0.00000477,
 -0.00001802,0.00000022,0.00000616,0.00001758,0.00000031,0.00008994,-0.
 00003611,0.,0.00010097,-0.00019528,-0.00000248,0.00014762,-0.00004917,
 -0.00000818,0.00022575,0.00016684,0.00000755,-0.00002055,0.00008226,0.
 00000165,-0.00007694,0.00001024,0.00000119,0.45188340,0.00044881,0.000
 56169,0.00001260,0.00060584,-0.00062335,-0.00003137,-0.00028220,0.0009
 7016,0.00001505,-0.00027797,-0.00033119,0.00001415,-0.00084700,0.00030
 646,0.00002482,0.00007957,-0.00111836,-0.00003712,0.00026544,-0.000191
 34,-0.00003444,0.00017798,-0.00036896,-0.00004134,-0.00005805,-0.00010
 700,-0.00000345,-0.00006446,-0.00005058,0.00000192,0.00015149,-0.00013
 989,-0.00000843,0.00018029,0.00015058,0.00000237,-0.00012536,0.0000422
 6,0.00000519,-0.00001146,0.00009448,0.00000603,-0.00008493,0.00028335,
 -0.00000330,0.00025097,0.00005881,-0.00001736,0.00033372,-0.00184034,0
 .00008375,-0.00338640,-0.00334348,0.00016091,0.04858645,-0.02847355,0.
 00167505,0.00633611,-0.00306661,0.00013882,0.00122432,-0.00021523,-0.0
 0000464,0.00062741,0.00235994,-0.00001649,-0.00039136,-0.00087607,-0.0
 0001848,0.00062988,-0.00154634,-0.00002702,0.00046803,0.00022414,-0.00
 000449,0.00014766,0.00097198,0.00002743,-0.00018693,0.00009618,0.00000
 408,-0.00021528,-0.00010060,0.00000015,0.07870695,-0.06659743,0.002688
 81,0.00226212,0.00165128,-0.00000806,-0.00000221,0.00000869,0.00000019
 ,0.00001590,-0.00001142,-0.00000031,-0.00000182,0.00000632,-0.00000026
 ,-0.00000336,-0.00000556,-0.00000016,-0.00007137,0.00008471,-0.0000129
 1,-0.00012934,0.00022879,0.00000241,-0.00007967,0.00002172,0.00000435,
 -0.00013909,-0.00009908,-0.00000425,0.00001101,-0.00002911,-0.00000030
 ,0.00003325,-0.00000720,-0.00000063,-0.13242790,0.09889514,-0.00002793
 ,-0.00003438,-0.00000429,-0.00003597,0.00003750,0.00000666,0.00001377,
 -0.00005799,0.00000448,0.00001686,0.00001981,-0.00001907,0.00005203,-0
 .00001924,0.00000046,-0.00000529,0.00006833,0.00000278,-0.00001242,0.0
 0001079,0.00000007,-0.00001091,0.00001482,0.00009405,0.00000688,0.0000
 0488,-0.00000875,-0.00000123,0.00000387,-0.00002436,-0.00000504,0.0000
 1164,-0.00000184,-0.00000987,-0.00001069,-0.00000079,0.00000761,-0.000
 00217,0.00001816,0.00000136,-0.00000712,0.00001685,0.00000045,-0.00002
 093,-0.00012151,-0.00001396,-0.00002818,-0.00065932,-0.00000582,0.0002
 4403,0.00148431,0.00011046,0.00009269,0.00548345,-0.00121498,0.0010180
 8,-0.00157029,-0.00009905,-0.00028861,-0.00215815,-0.00010320,0.000132
 18,-0.00042681,0.00000985,-0.00023555,0.00000327,0.00004773,0.00002771
 ,-0.00002696,-0.00005479,0.00016473,-0.00015964,-0.00002893,-0.0000139
 0,-0.00000174,-0.00000908,-0.00005928,-0.00000400,0.00000855,-0.000004
 77,0.00000244,0.00001331,0.00000666,-0.00000557,-0.01066168,0.00369804
 ,-0.01516747,0.00009388,0.00001049,-0.00086096,0.00000014,-0.00000062,
 0.00000243,-0.00000124,0.00000049,0.00000380,-0.00000005,-0.00000042,0
 .00000261,0.00000018,0.00000050,0.00000472,0.00000719,-0.00001516,-0.0
 0047399,-0.00000701,0.00000759,0.00050940,0.00000480,-0.00000137,0.000
 00312,0.00000864,0.00000585,0.00000261,-0.00000046,0.00000131,0.000001
 72,-0.00000185,0.00000052,0.00000178,0.01188848,-0.00475685,0.01487234
 ,-0.00048426,-0.00062710,-0.00001222,-0.00044690,0.00067312,0.00002960
 ,0.00024078,-0.00094209,-0.00001275,0.00026673,0.00030572,-0.00000989,
 0.00072662,-0.00025246,-0.00002118,0.00006384,0.00105023,0.00003231,-0
 .00039611,0.00003325,0.00002205,0.00001334,0.00041159,0.00002687,-0.00
 006550,-0.00004370,0.00000315,0.00015210,0.00004300,-0.00000134,-0.000
 16051,-0.00002165,0.00000381,-0.00019362,0.00001230,0.00000167,0.00021
 108,-0.00003835,-0.00000415,-0.00020961,0.00007402,0.00000126,0.000401
 90,-0.00019970,-0.00000764,-0.00040963,0.00001452,-0.00000342,0.001443
 83,0.00021003,0.00004195,-0.00023593,-0.00095300,-0.00001892,-0.000895
 20,0.00448642,-0.00011030,-0.04208793,-0.01654033,0.00059328,0.0039720
 4,-0.00258237,0.00045777,-0.00198303,-0.00107738,-0.00011666,0.0001563
 7,0.00125677,0.00001025,0.00003987,0.00020109,0.00003887,-0.00041190,-
 0.00018956,0.00000428,-0.00015421,-0.00092296,-0.00002586,0.00015148,-
 0.00006722,-0.00000302,0.00015533,0.00005692,-0.00000054,0.00204591,0.
 00012218,0.00004946,-0.33910705,-0.20417258,0.00900926,-0.00000004,-0.
 00000829,-0.00000021,-0.00001164,0.00000806,0.00000020,0.00000365,-0.0
 0000407,0.00000042,0.00000222,0.00000162,0.00000031,-0.00010279,0.0001
 5311,-0.00000510,0.00001080,0.00139368,0.00007101,0.00007380,-0.000019
 13,-0.00000418,0.00013553,0.00008906,0.00000347,-0.00001068,0.00002299
 ,0.00000010,-0.00002343,0.00000541,0.00000031,-0.00200877,-0.00184815,
 -0.00001754,0.37824050,-0.00023759,-0.00031428,-0.00000662,-0.00012343
 ,0.00032006,0.00001273,0.00005021,-0.00040112,-0.00000407,0.00012511,0
 .00013141,-0.00000223,0.00024889,-0.00010365,-0.00000783,0.00010554,0.
 00042593,0.00001103,-0.00027265,-0.00002767,0.00000644,0.00002898,0.00
 024990,0.00001036,-0.00004193,-0.00013993,-0.00000050,0.00002478,0.000
 00531,-0.00000024,0.00001592,-0.00009034,-0.00000250,-0.00008081,0.000
 12703,0.00000398,0.00016535,0.00000268,-0.00000252,-0.00023596,0.00016
 238,0.00000738,0.00043535,-0.00017787,-0.00001214,-0.00057161,0.000093
 20,-0.00000188,0.00055417,-0.00036425,0.00002239,-0.00002776,0.0014836
 6,0.00000832,0.00597189,-0.00337691,0.00034434,0.02394944,0.01407187,-
 0.00068017,0.00441745,-0.00007229,0.00013341,-0.00100534,-0.00058764,-
 0.00005315,0.00004853,0.00064448,-0.00000147,0.00002509,0.00008772,0.0
 0002825,-0.00013973,-0.00005467,0.00000158,-0.00007221,-0.00037846,-0.
 00001035,-0.00003713,0.00002573,0.00000126,0.00002052,-0.00000700,-0.0
 0000048,-0.00194833,0.00023155,-0.00005752,-0.25361312,-0.21279083,0.0
 1084414,-0.00000078,-0.00000321,0.00000022,-0.00000557,-0.00000346,0.0
 0000045,-0.00000004,0.00000110,0.00000024,0.00000104,-0.00000132,0.000
 00011,0.00017178,-0.00009696,-0.00000205,-0.00075555,-0.00121247,0.000
 02014,0.00002573,-0.00000886,-0.00000148,0.00005788,0.00003176,0.00000
 118,-0.00000163,-0.00000629,-0.00000027,-0.00000003,0.00000445,0.00000
 024,0.00176581,0.00180059,-0.00000481,0.22047927,0.20063528,-0.0000010
 4,-0.00000325,0.00000141,0.00001105,0.00000155,0.00000380,-0.00000565,
 0.00000288,0.00000856,-0.00000030,-0.00000078,-0.00000570,-0.00001111,
 0.00000189,0.00000306,0.00000981,-0.00000818,0.00000613,-0.00001120,-0
 .00000779,-0.00001086,0.00000611,0.00000718,-0.00002092,-0.00000456,-0
 .00001520,-0.00000409,-0.00000184,-0.00000174,0.00000090,0.00000876,-0
 .00001299,0.00000081,0.00000064,0.00001674,0.00000332,0.00000923,0.000
 00197,0.00000120,-0.00002098,0.00001625,-0.00000255,0.00003243,-0.0000
 0235,-0.00000687,-0.00003340,0.00002631,-0.00001497,0.00001937,-0.0001
 2285,0.00013526,-0.00020939,0.00001006,0.00087338,-0.00034221,0.000273
 20,0.00239302,-0.00189601,-0.00090404,-0.00150519,0.00019961,0.0004235
 7,-0.00143334,-0.00000350,0.00005014,-0.00086894,-0.00001465,0.0000219
 1,-0.00003800,0.00001954,-0.00005370,0.00013299,0.00000690,0.00000391,
 -0.00000927,0.00000013,0.00000663,-0.00000429,-0.00001191,0.00000671,-
 0.00000311,-0.00000713,-0.00000443,-0.00000347,-0.00009764,0.00007379,
 0.00017653,0.01224217,0.01072553,-0.00313804,-0.00000018,0.,0.00000072
 ,-0.00000033,-0.00000016,0.00000709,-0.00000015,0.00000028,0.00000163,
 -0.00000007,-0.00000028,0.00000226,-0.00002535,0.00001408,-0.00027514,
 -0.00000244,0.00001008,-0.00024106,-0.00000137,0.00000048,0.00000791,-
 0.00000047,-0.00000126,0.00000338,0.00000048,-0.00000197,0.00000242,0.
 00000152,-0.00000004,0.00000202,0.00009121,0.00004702,-0.00095707,-0.0
 0996643,-0.01058943,0.00466834,0.00252639,0.00218523,-0.00011157,-0.01
 814811,0.00918394,0.00057578,-0.01155109,-0.01666239,-0.00054456,0.005
 56904,0.00251622,-0.00032207,0.01140613,-0.00679907,-0.00033405,-0.010
 38593,0.01017847,0.00051081,0.04493291,0.01379449,-0.00104062,-0.05366
 276,-0.02611506,0.00041834,-0.00804311,0.01974175,0.00065280,-0.005776
 59,-0.00214831,0.00001385,-0.00112708,0.00805026,0.00024619,-0.0000294
 4,-0.00819565,-0.00027673,-0.00569267,0.00164906,0.00006809,-0.0055948
 3,-0.02019540,-0.00017045,-0.05339302,0.01858412,0.00033294,0.04395422
 ,-0.00505611,-0.00061330,-0.01744944,-0.00899029,-0.00026616,0.0023698
 8,-0.00194172,0.00020379,-0.00954902,-0.01130610,0.00025321,0.01095093
 ,0.00811331,0.00006363,0.00604530,-0.00207841,0.00023094,-0.01456139,0
 .01687167,-0.00039332,-0.10811438,-0.08938367,0.00040115,-0.09761702,0
 .08117132,0.00007271,-0.00573746,-0.00296232,0.00003922,-0.00000107,-0
 .00731819,-0.00021018,0.00195249,-0.00203784,-0.00009638,0.00178933,0.
 00185046,0.00002308,-0.00076358,0.00761652,-0.00026624,-0.00610230,0.0
 0245412,-0.00024105,0.00009582,-0.00010101,-0.00000293,-0.00001915,0.0
 0034194,-0.00002227,0.00011605,-0.00012829,-0.00000321,0.00008823,0.00
 014097,0.00001444,0.00009447,0.00009685,-0.00000167,0.00001643,-0.0003
 4551,0.00001663,0.00090221,-0.00039276,-0.00004842,0.00098467,0.000982
 23,0.00005513,0.00011222,0.00036675,0.00002222,-0.00049125,0.00004617,
 0.00001720,0.00108782,-0.00090885,0.00003613,0.00089100,0.00048249,0.0
 0001036,0.29792514,-0.00011109,0.00524059,0.00040072,-0.00988510,-0.02
 239559,-0.00079880,-0.01062247,-0.01951456,-0.00003331,0.00281919,0.00
 134973,0.00007299,0.00732950,-0.00370131,-0.00025328,-0.00939397,0.002
 49901,0.00040482,-0.01413112,-0.04109801,-0.00181287,0.02553367,0.0045
 2455,-0.00167606,0.01211492,-0.00521323,-0.00034658,-0.00426028,0.0014
 8095,0.00016110,0.00335032,0.00177733,0.00003483,-0.00359861,-0.000030
 14,-0.00001978,0.00361593,0.00213044,-0.00005348,-0.01187077,-0.008752
 98,0.00018105,-0.03360675,0.00011371,0.00020602,0.02310095,-0.04045899
 ,-0.00060834,0.01015631,-0.02228045,0.00054230,-0.00013416,0.00504167,
 -0.00009504,0.00821038,0.00233460,0.00011957,-0.00593742,-0.00367544,-
 0.00005100,-0.00240777,0.00093857,-0.00026174,0.01111898,-0.01679058,0
 .00031571,-0.04440929,-0.03300769,-0.00160827,0.03617808,-0.02061042,0
 .00015533,-0.00457941,-0.00261058,0.00000035,0.00005724,-0.00311337,-0
 .00013163,-0.00209030,0.00097362,0.00004815,0.00263184,0.00131433,0.00
 001140,0.00018277,-0.00247090,0.00006893,0.00420236,-0.00192062,0.0001
 8576,0.00017398,0.00012051,-0.00001655,-0.00017870,0.00004901,-0.00001
 467,-0.00019039,0.00003510,0.00000306,0.00018697,0.00007083,0.00000602
 ,-0.00016942,0.00011899,-0.00002412,0.00017174,0.00003283,0.00000646,0
 .00070490,-0.00029988,-0.00003035,0.00023422,0.00043371,0.00000193,-0.
 00004252,-0.00030516,-0.00001547,-0.00034054,0.00033590,0.00002189,-0.
 00016853,0.00032540,-0.00002046,-0.00059428,-0.00031662,-0.00001172,0.
 00664862,0.21732517,0.00091892,0.00148327,-0.00025511,-0.00067028,-0.0
 0222708,-0.00016866,-0.00012054,0.00063044,0.00208058,-0.00018970,-0.0
 0067147,0.00491839,0.00010447,0.00020941,0.00020941,-0.00136750,-0.000
 92559,-0.00027480,-0.00039478,-0.00018654,-0.00732711,0.00017780,-0.00
 060982,0.00043017,0.00094275,0.00012668,0.00093482,-0.00000659,0.00009
 913,0.00110183,-0.00006968,0.00022964,0.00046184,-0.00021751,-0.000241
 89,0.00044196,0.00015451,-0.00005425,0.00108387,0.00043752,-0.00033468
 ,0.00103759,-0.00097358,-0.00038420,-0.00238230,0.00027828,-0.00148942
 ,-0.00699201,0.00022791,0.00192291,0.00000056,0.00130456,-0.00146572,-
 0.00029002,-0.00083334,0.00180431,-0.00038714,-0.00095806,-0.00061260,
 0.00018111,-0.00073189,0.00089058,0.00485770,-0.00032756,-0.00201979,0
 .00210608,0.00048447,-0.00366935,-0.00906888,0.00034622,0.00357143,-0.
 00999210,-0.00031495,-0.00024372,-0.00089884,0.00024165,0.00083408,0.0
 0006756,0.00018853,-0.00008956,-0.00036203,0.00030028,0.00015547,-0.00
 024066,0.00047153,-0.00167444,0.00011623,0.00040368,-0.00007638,-0.000
 88335,0.00001853,-0.00001341,0.00028693,-0.00002959,-0.00000944,-0.000
 06862,-0.00000647,-0.00000470,-0.00014366,0.00001257,0.00001766,-0.000
 14978,-0.00000351,0.00001261,0.00029437,0.00000549,0.00000776,-0.00006
 070,0.00004833,-0.00003049,0.00010301,-0.00015235,-0.00004273,0.000132
 43,-0.00001400,0.00003153,0.00004444,-0.00004331,0.00001520,-0.0000557
 8,-0.00026907,0.00011655,0.00013107,-0.00006031,-0.00001649,0.00010674
 ,0.00068655,0.00493511,0.01887283\\-0.00000245,-0.00000582,-0.00001453
 ,-0.00000233,-0.00000194,-0.00000781,0.00000830,-0.00000437,-0.0000000
 5,0.00000343,-0.00000495,-0.00000961,-0.00000134,-0.00000772,-0.000007
 82,0.00001596,0.00000088,-0.00001077,0.00000824,0.00001136,-0.00000171
 ,-0.00000721,0.00000806,-0.00000178,0.00000275,0.00000139,-0.00000274,
 -0.00000022,0.00001067,-0.00000528,-0.00000531,0.00001084,-0.00000174,
 -0.00001482,0.00000860,0.00000171,0.00000944,-0.00000131,0.00000315,-0
 .00000165,0.00000090,0.00000004,-0.00000510,-0.00000041,0.00000290,0.0
 0000251,-0.00000551,0.00000514,-0.00000658,0.00000361,0.00000951,-0.00
 001012,0.00000012,0.00001169,-0.00000389,-0.00000223,0.00001249,-0.000
 00760,0.00000157,0.00001338,0.00000079,-0.00000465,0.00000634,0.000001
 23,-0.00000612,0.00001280,0.00000046,0.00000157,-0.00000202,0.00000171
 ,-0.00000127,-0.00000232,0.00001263,-0.00000771,-0.00001866,0.00000517
 ,-0.00000078,-0.00001534,0.00000814,0.00000552,-0.00000987,0.00000468,
 0.00001098,0.00000054,-0.00001164,-0.00000774,0.00001731,-0.00000520,-
 0.00000108,0.00000879,0.00000676,0.00000192,-0.00001125,0.00000268,-0.
 00000413,-0.00000294,0.00000436,0.00000401,-0.00000825,-0.00000367,0.0
 0000551,0.00000509,-0.00000488,-0.00000118,0.00001328,-0.00000304,-0.0
 0000621,0.00000723,0.00000131,-0.00000124,-0.00000601,0.00000778,-0.00
 000577,-0.00001560,0.00000326,0.00000411,-0.00000614,-0.00000148,0.000
 00995,0.00000078,-0.00000473,-0.00000002,0.00001894,-0.00000689,-0.000
 00910,0.00001691,-0.00000142,-0.00001033,-0.00000579\\\@


 A MAN BEGINS CUTTING HIS WISDOM TEETH THE 1ST
 TIME HE BITES OFF MORE THAN HE CAN CHEW.
 Job cpu time:       0 days  6 hours 25 minutes 50.6 seconds.
 Elapsed time:       0 days  0 hours 13 minutes 49.5 seconds.
 File lengths (MBytes):  RWF=   1607 Int=      0 D2E=      0 Chk=     82 Scr=      2
 Normal termination of Gaussian 16 at Fri Jan 14 18:46:46 2022.
