 Entering Gaussian System, Link 0=g16
 Input=hhtc_ni_ipa_hs.gjf
 Output=hhtc_ni_ipa_hs.log
 Initial command:
 /curc/sw/gaussian/16/g16/l1.exe "/rc_scratch/xuwa0145/Gau-85692.inp" -scrdir="/rc_scratch/xuwa0145/"
 Entering Link 1 = /curc/sw/gaussian/16/g16/l1.exe PID=     85694.
  
 Copyright (c) 1988,1990,1992,1993,1995,1998,2003,2009,2016,
            Gaussian, Inc.  All Rights Reserved.
  
 This is part of the Gaussian(R) 16 program.  It is based on
 the Gaussian(R) 09 system (copyright 2009, Gaussian, Inc.),
 the Gaussian(R) 03 system (copyright 2003, Gaussian, Inc.),
 the Gaussian(R) 98 system (copyright 1998, Gaussian, Inc.),
 the Gaussian(R) 94 system (copyright 1995, Gaussian, Inc.),
 the Gaussian 92(TM) system (copyright 1992, Gaussian, Inc.),
 the Gaussian 90(TM) system (copyright 1990, Gaussian, Inc.),
 the Gaussian 88(TM) system (copyright 1988, Gaussian, Inc.),
 the Gaussian 86(TM) system (copyright 1986, Carnegie Mellon
 University), and the Gaussian 82(TM) system (copyright 1983,
 Carnegie Mellon University). Gaussian is a federally registered
 trademark of Gaussian, Inc.
  
 This software contains proprietary and confidential information,
 including trade secrets, belonging to Gaussian, Inc.
  
 This software is provided under written license and may be
 used, copied, transmitted, or stored only in accord with that
 written license.
  
 The following legend is applicable only to US Government
 contracts under FAR:
  
                    RESTRICTED RIGHTS LEGEND
  
 Use, reproduction and disclosure by the US Government is
 subject to restrictions as set forth in subparagraphs (a)
 and (c) of the Commercial Computer Software - Restricted
 Rights clause in FAR 52.227-19.
  
 Gaussian, Inc.
 340 Quinnipiac St., Bldg. 40, Wallingford CT 06492
  
  
 ---------------------------------------------------------------
 Warning -- This program may not be used in any manner that
 competes with the business of Gaussian, Inc. or will provide
 assistance to any competitor of Gaussian, Inc.  The licensee
 of this program is prohibited from giving any competitor of
 Gaussian, Inc. access to this program.  By using this program,
 the user acknowledges that Gaussian, Inc. is engaged in the
 business of creating and licensing software in the field of
 computational chemistry and represents and warrants to the
 licensee that it is not a competitor of Gaussian, Inc. and that
 it will not use this program in any manner prohibited above.
 ---------------------------------------------------------------
  

 Cite this work as:
 Gaussian 16, Revision A.03,
 M. J. Frisch, G. W. Trucks, H. B. Schlegel, G. E. Scuseria, 
 M. A. Robb, J. R. Cheeseman, G. Scalmani, V. Barone, 
 G. A. Petersson, H. Nakatsuji, X. Li, M. Caricato, A. V. Marenich, 
 J. Bloino, B. G. Janesko, R. Gomperts, B. Mennucci, H. P. Hratchian, 
 J. V. Ortiz, A. F. Izmaylov, J. L. Sonnenberg, D. Williams-Young, 
 F. Ding, F. Lipparini, F. Egidi, J. Goings, B. Peng, A. Petrone, 
 T. Henderson, D. Ranasinghe, V. G. Zakrzewski, J. Gao, N. Rega, 
 G. Zheng, W. Liang, M. Hada, M. Ehara, K. Toyota, R. Fukuda, 
 J. Hasegawa, M. Ishida, T. Nakajima, Y. Honda, O. Kitao, H. Nakai, 
 T. Vreven, K. Throssell, J. A. Montgomery, Jr., J. E. Peralta, 
 F. Ogliaro, M. J. Bearpark, J. J. Heyd, E. N. Brothers, K. N. Kudin, 
 V. N. Staroverov, T. A. Keith, R. Kobayashi, J. Normand, 
 K. Raghavachari, A. P. Rendell, J. C. Burant, S. S. Iyengar, 
 J. Tomasi, M. Cossi, J. M. Millam, M. Klene, C. Adamo, R. Cammi, 
 J. W. Ochterski, R. L. Martin, K. Morokuma, O. Farkas, 
 J. B. Foresman, and D. J. Fox, Gaussian, Inc., Wallingford CT, 2016.
 
 ******************************************
 Gaussian 16:  ES64L-G16RevA.03 25-Dec-2016
                15-Jan-2022 
 ******************************************
 %chk=hhtc_ni_smd.chk
 %mem=10gb
 %nprocshared=28
 Will use up to   28 processors via shared memory.
 --------------------------------------------------------------
 #opt freq wb97xd def2svp scf=xqc scrf=(smd,solvent=2-propanol)
 --------------------------------------------------------------
 1/18=20,19=15,26=3,38=1/1,3;
 2/9=110,12=2,17=6,18=5,40=1/2;
 3/5=43,7=101,11=2,25=1,30=1,70=32201,71=1,72=73,74=-58/1,2,3;
 4//1;
 5/5=2,8=3,13=1,38=5,53=73/2,8;
 6/7=2,8=2,9=2,10=2,28=1/1;
 7//1,2,3,16;
 1/18=20,19=15,26=3/3(2);
 2/9=110/2;
 99//99;
 2/9=110/2;
 3/5=43,7=101,11=2,25=1,30=1,70=32205,71=1,72=73,74=-58/1,2,3;
 4/5=5,16=3,69=1/1;
 5/5=2,8=3,13=1,38=5,53=73/2,8;
 7//1,2,3,16;
 1/18=20,19=15,26=3/3(-5);
 2/9=110/2;
 6/7=2,8=2,9=2,10=2,19=2,28=1/1;
 99/9=1/99;
 ----------
 [No Title]
 ----------
 Symbolic Z-matrix:
 Charge =  2 Multiplicity = 3
 C                     0.56723   4.19839   0.00103 
 C                     0.60637   2.81775   0.00082 
 C                     1.88386   2.11224  -0.00022 
 C                     3.11164   2.84454  -0.00109 
 C                     3.06286   4.2093   -0.0009 
 C                     1.78288   4.90013   0.00014 
 C                    -0.53898   1.95567   0.00142 
 C                    -1.58971   1.2786    0.00139 
 C                    -2.83475   0.58202   0.00085 
 C                    -4.08291   1.22744   0.00132 
 C                    -5.24024   0.46708   0.00044 
 C                    -5.17717  -0.96361  -0.00095 
 C                    -3.94328  -1.60689  -0.00138 
 C                    -2.77207  -0.84619  -0.00048 
 C                    -1.4615   -1.42457  -0.0007 
 C                    -0.35454  -1.99975  -0.00071 
 C                     0.87061  -2.75218  -0.00039 
 C                     0.9584   -4.12818  -0.00007 
 C                     2.23651  -4.71471   0.00032 
 C                     3.44524  -3.9087    0.00041 
 C                     3.36553  -2.54483   0.0001 
 C                     2.07482  -1.93031  -0.00026 
 C                     1.71721   0.74327  -0.00018 
 C                     1.78156  -0.582    -0.00052 
 O                     4.08706   5.06241  -0.00168 
 O                     1.77138   6.19781   0.00053 
 O                    -6.48622   0.94145   0.00076 
 O                    -6.28812  -1.67099  -0.0018 
 O                     2.34392  -6.00708   0.00056 
 O                     4.54488  -4.66264   0.00079 
 H                    -0.3659    4.76135   0.00188 
 H                     4.06453   2.31303  -0.00188 
 H                    -4.13879   2.31745   0.00236 
 H                    -3.91846  -2.69656  -0.00241 
 H                     0.08139  -4.77543  -0.00016 
 H                     4.26466  -1.92665   0.00015 
 H                     4.95538   4.64095  -0.00226 
 H                     2.67667   6.55847  -0.00028 
 H                    -6.53648   1.90459   0.00162 
 H                    -7.06481  -1.09042  -0.00137 
 H                     3.27862  -6.2836    0.00079 
 H                     5.37027  -4.16244   0.00098 
 Ni                    0.02615  -0.00198   0.00018 
 

 GradGradGradGradGradGradGradGradGradGradGradGradGradGradGradGradGradGrad
 Berny optimization.
 Initialization pass.
                           ----------------------------
                           !    Initial Parameters    !
                           ! (Angstroms and Degrees)  !
 --------------------------                            --------------------------
 ! Name  Definition              Value          Derivative Info.                !
 --------------------------------------------------------------------------------
 ! R1    R(1,2)                  1.3812         estimate D2E/DX2                !
 ! R2    R(1,6)                  1.4036         estimate D2E/DX2                !
 ! R3    R(1,31)                 1.0898         estimate D2E/DX2                !
 ! R4    R(2,3)                  1.4594         estimate D2E/DX2                !
 ! R5    R(2,7)                  1.4335         estimate D2E/DX2                !
 ! R6    R(3,4)                  1.4296         estimate D2E/DX2                !
 ! R7    R(3,23)                 1.3791         estimate D2E/DX2                !
 ! R8    R(4,5)                  1.3656         estimate D2E/DX2                !
 ! R9    R(4,32)                 1.0911         estimate D2E/DX2                !
 ! R10   R(5,6)                  1.4545         estimate D2E/DX2                !
 ! R11   R(5,25)                 1.333          estimate D2E/DX2                !
 ! R12   R(6,26)                 1.2977         estimate D2E/DX2                !
 ! R13   R(7,8)                  1.25           estimate D2E/DX2                !
 ! R14   R(7,43)                 2.0376         estimate D2E/DX2                !
 ! R15   R(8,9)                  1.4267         estimate D2E/DX2                !
 ! R16   R(8,43)                 2.0618         estimate D2E/DX2                !
 ! R17   R(9,10)                 1.4052         estimate D2E/DX2                !
 ! R18   R(9,14)                 1.4296         estimate D2E/DX2                !
 ! R19   R(10,11)                1.3848         estimate D2E/DX2                !
 ! R20   R(10,33)                1.0914         estimate D2E/DX2                !
 ! R21   R(11,12)                1.4321         estimate D2E/DX2                !
 ! R22   R(11,27)                1.3332         estimate D2E/DX2                !
 ! R23   R(12,13)                1.3915         estimate D2E/DX2                !
 ! R24   R(12,28)                1.317          estimate D2E/DX2                !
 ! R25   R(13,14)                1.3966         estimate D2E/DX2                !
 ! R26   R(13,34)                1.09           estimate D2E/DX2                !
 ! R27   R(14,15)                1.4325         estimate D2E/DX2                !
 ! R28   R(15,16)                1.2475         estimate D2E/DX2                !
 ! R29   R(15,43)                2.0584         estimate D2E/DX2                !
 ! R30   R(16,17)                1.4378         estimate D2E/DX2                !
 ! R31   R(16,43)                2.0337         estimate D2E/DX2                !
 ! R32   R(17,18)                1.3788         estimate D2E/DX2                !
 ! R33   R(17,22)                1.4579         estimate D2E/DX2                !
 ! R34   R(18,19)                1.4063         estimate D2E/DX2                !
 ! R35   R(18,35)                1.09           estimate D2E/DX2                !
 ! R36   R(19,20)                1.4528         estimate D2E/DX2                !
 ! R37   R(19,29)                1.2968         estimate D2E/DX2                !
 ! R38   R(20,21)                1.3662         estimate D2E/DX2                !
 ! R39   R(20,30)                1.3333         estimate D2E/DX2                !
 ! R40   R(21,22)                1.4295         estimate D2E/DX2                !
 ! R41   R(21,36)                1.0911         estimate D2E/DX2                !
 ! R42   R(22,24)                1.3798         estimate D2E/DX2                !
 ! R43   R(23,24)                1.3268         estimate D2E/DX2                !
 ! R44   R(23,43)                1.848          estimate D2E/DX2                !
 ! R45   R(24,43)                1.8487         estimate D2E/DX2                !
 ! R46   R(25,37)                0.9652         estimate D2E/DX2                !
 ! R47   R(26,38)                0.9745         estimate D2E/DX2                !
 ! R48   R(27,39)                0.9645         estimate D2E/DX2                !
 ! R49   R(28,40)                0.9697         estimate D2E/DX2                !
 ! R50   R(29,41)                0.9747         estimate D2E/DX2                !
 ! R51   R(30,42)                0.9651         estimate D2E/DX2                !
 ! A1    A(2,1,6)              118.372          estimate D2E/DX2                !
 ! A2    A(2,1,31)             122.7261         estimate D2E/DX2                !
 ! A3    A(6,1,31)             118.9019         estimate D2E/DX2                !
 ! A4    A(1,2,3)              120.5341         estimate D2E/DX2                !
 ! A5    A(1,2,7)              125.3438         estimate D2E/DX2                !
 ! A6    A(3,2,7)              114.122          estimate D2E/DX2                !
 ! A7    A(2,3,4)              120.276          estimate D2E/DX2                !
 ! A8    A(2,3,23)             111.9693         estimate D2E/DX2                !
 ! A9    A(4,3,23)             127.7547         estimate D2E/DX2                !
 ! A10   A(3,4,5)              118.7668         estimate D2E/DX2                !
 ! A11   A(3,4,32)             120.0342         estimate D2E/DX2                !
 ! A12   A(5,4,32)             121.199          estimate D2E/DX2                !
 ! A13   A(4,5,6)              120.4034         estimate D2E/DX2                !
 ! A14   A(4,5,25)             127.7461         estimate D2E/DX2                !
 ! A15   A(6,5,25)             111.8505         estimate D2E/DX2                !
 ! A16   A(1,6,5)              121.6476         estimate D2E/DX2                !
 ! A17   A(1,6,26)             119.4883         estimate D2E/DX2                !
 ! A18   A(5,6,26)             118.8641         estimate D2E/DX2                !
 ! A19   A(2,7,43)             110.8652         estimate D2E/DX2                !
 ! A20   A(9,8,43)             112.3763         estimate D2E/DX2                !
 ! A21   A(8,9,10)             123.4297         estimate D2E/DX2                !
 ! A22   A(8,9,14)             116.7137         estimate D2E/DX2                !
 ! A23   A(10,9,14)            119.8566         estimate D2E/DX2                !
 ! A24   A(9,10,11)            119.3516         estimate D2E/DX2                !
 ! A25   A(9,10,33)            120.2783         estimate D2E/DX2                !
 ! A26   A(11,10,33)           120.3701         estimate D2E/DX2                !
 ! A27   A(10,11,12)           120.7806         estimate D2E/DX2                !
 ! A28   A(10,11,27)           125.8523         estimate D2E/DX2                !
 ! A29   A(12,11,27)           113.3671         estimate D2E/DX2                !
 ! A30   A(11,12,13)           120.059          estimate D2E/DX2                !
 ! A31   A(11,12,28)           119.9622         estimate D2E/DX2                !
 ! A32   A(13,12,28)           119.9788         estimate D2E/DX2                !
 ! A33   A(12,13,14)           119.4616         estimate D2E/DX2                !
 ! A34   A(12,13,34)           118.8393         estimate D2E/DX2                !
 ! A35   A(14,13,34)           121.6991         estimate D2E/DX2                !
 ! A36   A(9,14,13)            120.4906         estimate D2E/DX2                !
 ! A37   A(9,14,15)            116.3261         estimate D2E/DX2                !
 ! A38   A(13,14,15)           123.1833         estimate D2E/DX2                !
 ! A39   A(14,15,43)           112.4675         estimate D2E/DX2                !
 ! A40   A(17,16,43)           110.7673         estimate D2E/DX2                !
 ! A41   A(16,17,18)           125.2072         estimate D2E/DX2                !
 ! A42   A(16,17,22)           114.1305         estimate D2E/DX2                !
 ! A43   A(18,17,22)           120.6623         estimate D2E/DX2                !
 ! A44   A(17,18,19)           118.3013         estimate D2E/DX2                !
 ! A45   A(17,18,35)           122.7771         estimate D2E/DX2                !
 ! A46   A(19,18,35)           118.9216         estimate D2E/DX2                !
 ! A47   A(18,19,20)           121.6534         estimate D2E/DX2                !
 ! A48   A(18,19,29)           119.4013         estimate D2E/DX2                !
 ! A49   A(20,19,29)           118.9452         estimate D2E/DX2                !
 ! A50   A(19,20,21)           120.3511         estimate D2E/DX2                !
 ! A51   A(19,20,30)           111.8685         estimate D2E/DX2                !
 ! A52   A(21,20,30)           127.7804         estimate D2E/DX2                !
 ! A53   A(20,21,22)           118.8044         estimate D2E/DX2                !
 ! A54   A(20,21,36)           121.1647         estimate D2E/DX2                !
 ! A55   A(22,21,36)           120.0309         estimate D2E/DX2                !
 ! A56   A(17,22,21)           120.2275         estimate D2E/DX2                !
 ! A57   A(17,22,24)           112.0421         estimate D2E/DX2                !
 ! A58   A(21,22,24)           127.7304         estimate D2E/DX2                !
 ! A59   A(3,23,43)            120.7242         estimate D2E/DX2                !
 ! A60   A(22,24,43)           120.5554         estimate D2E/DX2                !
 ! A61   A(5,25,37)            114.3161         estimate D2E/DX2                !
 ! A62   A(6,26,38)            111.2148         estimate D2E/DX2                !
 ! A63   A(11,27,39)           113.83           estimate D2E/DX2                !
 ! A64   A(12,28,40)           110.7356         estimate D2E/DX2                !
 ! A65   A(19,29,41)           111.2311         estimate D2E/DX2                !
 ! A66   A(20,30,42)           114.3483         estimate D2E/DX2                !
 ! A67   A(7,43,15)            117.6169         estimate D2E/DX2                !
 ! A68   A(7,43,16)            153.1086         estimate D2E/DX2                !
 ! A69   A(7,43,23)             82.3192         estimate D2E/DX2                !
 ! A70   A(7,43,24)            124.3868         estimate D2E/DX2                !
 ! A71   A(8,43,15)             82.1164         estimate D2E/DX2                !
 ! A72   A(8,43,16)            117.608          estimate D2E/DX2                !
 ! A73   A(8,43,23)            117.8198         estimate D2E/DX2                !
 ! A74   A(8,43,24)            159.8874         estimate D2E/DX2                !
 ! A75   A(15,43,23)           160.0639         estimate D2E/DX2                !
 ! A76   A(15,43,24)           117.9962         estimate D2E/DX2                !
 ! A77   A(16,43,23)           124.5722         estimate D2E/DX2                !
 ! A78   A(16,43,24)            82.5046         estimate D2E/DX2                !
 ! A79   L(2,7,8,17,-1)        184.1707         estimate D2E/DX2                !
 ! A80   L(7,8,9,16,-1)        183.5702         estimate D2E/DX2                !
 ! A81   L(14,15,16,1,-1)      183.6431         estimate D2E/DX2                !
 ! A82   L(15,16,17,2,-1)      184.1001         estimate D2E/DX2                !
 ! A83   L(3,23,24,8,-1)       189.721          estimate D2E/DX2                !
 ! A84   L(22,24,23,11,-1)     189.4909         estimate D2E/DX2                !
 ! A85   L(2,7,8,17,-2)        180.0291         estimate D2E/DX2                !
 ! A86   L(7,8,9,16,-2)        180.0227         estimate D2E/DX2                !
 ! A87   L(14,15,16,1,-2)      179.9899         estimate D2E/DX2                !
 ! A88   L(15,16,17,2,-2)      179.9849         estimate D2E/DX2                !
 ! A89   L(3,23,24,8,-2)       179.9877         estimate D2E/DX2                !
 ! A90   L(22,24,23,11,-2)     179.972          estimate D2E/DX2                !
 ! D1    D(6,1,2,3)              0.0032         estimate D2E/DX2                !
 ! D2    D(6,1,2,7)           -179.9902         estimate D2E/DX2                !
 ! D3    D(31,1,2,3)          -179.9947         estimate D2E/DX2                !
 ! D4    D(31,1,2,7)             0.0119         estimate D2E/DX2                !
 ! D5    D(2,1,6,5)             -0.0031         estimate D2E/DX2                !
 ! D6    D(2,1,6,26)          -179.9894         estimate D2E/DX2                !
 ! D7    D(31,1,6,5)           179.9949         estimate D2E/DX2                !
 ! D8    D(31,1,6,26)            0.0085         estimate D2E/DX2                !
 ! D9    D(1,2,3,4)             -0.0021         estimate D2E/DX2                !
 ! D10   D(1,2,3,23)           179.9956         estimate D2E/DX2                !
 ! D11   D(7,2,3,4)            179.992          estimate D2E/DX2                !
 ! D12   D(7,2,3,23)            -0.0103         estimate D2E/DX2                !
 ! D13   D(1,2,7,43)           179.981          estimate D2E/DX2                !
 ! D14   D(3,2,7,43)            -0.0127         estimate D2E/DX2                !
 ! D15   D(1,2,9,10)            -0.0116         estimate D2E/DX2                !
 ! D16   D(1,2,9,14)           179.9485         estimate D2E/DX2                !
 ! D17   D(3,2,9,10)          -179.9758         estimate D2E/DX2                !
 ! D18   D(3,2,9,14)            -0.0157         estimate D2E/DX2                !
 ! D19   D(2,3,4,5)              0.0008         estimate D2E/DX2                !
 ! D20   D(2,3,4,32)          -179.9991         estimate D2E/DX2                !
 ! D21   D(23,3,4,5)          -179.9965         estimate D2E/DX2                !
 ! D22   D(23,3,4,32)            0.0036         estimate D2E/DX2                !
 ! D23   D(2,3,23,43)            0.0331         estimate D2E/DX2                !
 ! D24   D(4,3,23,43)         -179.9694         estimate D2E/DX2                !
 ! D25   D(3,4,5,6)             -0.0007         estimate D2E/DX2                !
 ! D26   D(3,4,5,25)          -179.9956         estimate D2E/DX2                !
 ! D27   D(32,4,5,6)           179.9992         estimate D2E/DX2                !
 ! D28   D(32,4,5,25)            0.0043         estimate D2E/DX2                !
 ! D29   D(4,5,6,1)              0.0019         estimate D2E/DX2                !
 ! D30   D(4,5,6,26)           179.9883         estimate D2E/DX2                !
 ! D31   D(25,5,6,1)           179.9975         estimate D2E/DX2                !
 ! D32   D(25,5,6,26)           -0.016          estimate D2E/DX2                !
 ! D33   D(4,5,25,37)           -0.0131         estimate D2E/DX2                !
 ! D34   D(6,5,25,37)          179.9916         estimate D2E/DX2                !
 ! D35   D(1,6,26,38)         -179.9934         estimate D2E/DX2                !
 ! D36   D(5,6,26,38)            0.0198         estimate D2E/DX2                !
 ! D37   D(2,7,43,15)         -179.9513         estimate D2E/DX2                !
 ! D38   D(2,7,43,16)         -179.9746         estimate D2E/DX2                !
 ! D39   D(2,7,43,23)            0.0234         estimate D2E/DX2                !
 ! D40   D(2,7,43,24)            0.037          estimate D2E/DX2                !
 ! D41   D(43,8,9,10)         -179.9921         estimate D2E/DX2                !
 ! D42   D(43,8,9,14)           -0.0031         estimate D2E/DX2                !
 ! D43   D(9,8,43,15)           -0.008          estimate D2E/DX2                !
 ! D44   D(9,8,43,16)           -0.0269         estimate D2E/DX2                !
 ! D45   D(9,8,43,23)          179.9678         estimate D2E/DX2                !
 ! D46   D(9,8,43,24)          179.9916         estimate D2E/DX2                !
 ! D47   D(8,9,10,11)          179.9863         estimate D2E/DX2                !
 ! D48   D(8,9,10,33)           -0.0132         estimate D2E/DX2                !
 ! D49   D(14,9,10,11)          -0.0024         estimate D2E/DX2                !
 ! D50   D(14,9,10,33)         179.9981         estimate D2E/DX2                !
 ! D51   D(8,9,14,13)         -179.986          estimate D2E/DX2                !
 ! D52   D(8,9,14,15)            0.0184         estimate D2E/DX2                !
 ! D53   D(10,9,14,13)           0.0035         estimate D2E/DX2                !
 ! D54   D(10,9,14,15)        -179.9921         estimate D2E/DX2                !
 ! D55   D(9,10,11,12)          -0.0007         estimate D2E/DX2                !
 ! D56   D(9,10,11,27)         179.9995         estimate D2E/DX2                !
 ! D57   D(33,10,11,12)        179.9988         estimate D2E/DX2                !
 ! D58   D(33,10,11,27)         -0.001          estimate D2E/DX2                !
 ! D59   D(10,11,12,13)          0.0028         estimate D2E/DX2                !
 ! D60   D(10,11,12,28)       -179.9984         estimate D2E/DX2                !
 ! D61   D(27,11,12,13)       -179.9974         estimate D2E/DX2                !
 ! D62   D(27,11,12,28)          0.0014         estimate D2E/DX2                !
 ! D63   D(10,11,27,39)          0.0047         estimate D2E/DX2                !
 ! D64   D(12,11,27,39)       -179.9951         estimate D2E/DX2                !
 ! D65   D(11,12,13,14)         -0.0017         estimate D2E/DX2                !
 ! D66   D(11,12,13,34)        179.9978         estimate D2E/DX2                !
 ! D67   D(28,12,13,14)        179.9995         estimate D2E/DX2                !
 ! D68   D(28,12,13,34)         -0.001          estimate D2E/DX2                !
 ! D69   D(11,12,28,40)          0.0013         estimate D2E/DX2                !
 ! D70   D(13,12,28,40)       -180.0            estimate D2E/DX2                !
 ! D71   D(12,13,14,9)          -0.0014         estimate D2E/DX2                !
 ! D72   D(12,13,14,15)        179.9939         estimate D2E/DX2                !
 ! D73   D(34,13,14,9)         179.9991         estimate D2E/DX2                !
 ! D74   D(34,13,14,15)         -0.0056         estimate D2E/DX2                !
 ! D75   D(9,14,15,43)          -0.0244         estimate D2E/DX2                !
 ! D76   D(13,14,15,43)        179.9801         estimate D2E/DX2                !
 ! D77   D(9,14,17,18)         179.9235         estimate D2E/DX2                !
 ! D78   D(9,14,17,22)          -0.057          estimate D2E/DX2                !
 ! D79   D(13,14,17,18)         -0.0562         estimate D2E/DX2                !
 ! D80   D(13,14,17,22)        179.9633         estimate D2E/DX2                !
 ! D81   D(14,15,43,7)           0.0067         estimate D2E/DX2                !
 ! D82   D(14,15,43,8)           0.0174         estimate D2E/DX2                !
 ! D83   D(14,15,43,23)       -179.9198         estimate D2E/DX2                !
 ! D84   D(14,15,43,24)       -179.9825         estimate D2E/DX2                !
 ! D85   D(43,16,17,18)        179.9616         estimate D2E/DX2                !
 ! D86   D(43,16,17,22)         -0.0317         estimate D2E/DX2                !
 ! D87   D(17,16,43,7)        -179.9486         estimate D2E/DX2                !
 ! D88   D(17,16,43,8)        -179.9519         estimate D2E/DX2                !
 ! D89   D(17,16,43,23)          0.0538         estimate D2E/DX2                !
 ! D90   D(17,16,43,24)          0.0416         estimate D2E/DX2                !
 ! D91   D(16,17,18,19)       -179.9953         estimate D2E/DX2                !
 ! D92   D(16,17,18,35)          0.0071         estimate D2E/DX2                !
 ! D93   D(22,17,18,19)         -0.0024         estimate D2E/DX2                !
 ! D94   D(22,17,18,35)       -180.0            estimate D2E/DX2                !
 ! D95   D(16,17,22,21)        179.9983         estimate D2E/DX2                !
 ! D96   D(16,17,22,24)         -0.002          estimate D2E/DX2                !
 ! D97   D(18,17,22,21)          0.0047         estimate D2E/DX2                !
 ! D98   D(18,17,22,24)       -179.9957         estimate D2E/DX2                !
 ! D99   D(17,18,19,20)          0.0003         estimate D2E/DX2                !
 ! D100  D(17,18,19,29)       -179.9972         estimate D2E/DX2                !
 ! D101  D(35,18,19,20)        179.998          estimate D2E/DX2                !
 ! D102  D(35,18,19,29)          0.0005         estimate D2E/DX2                !
 ! D103  D(18,19,20,21)         -0.0004         estimate D2E/DX2                !
 ! D104  D(18,19,20,30)       -179.9996         estimate D2E/DX2                !
 ! D105  D(29,19,20,21)        179.9971         estimate D2E/DX2                !
 ! D106  D(29,19,20,30)         -0.0021         estimate D2E/DX2                !
 ! D107  D(18,19,29,41)        179.9979         estimate D2E/DX2                !
 ! D108  D(20,19,29,41)          0.0004         estimate D2E/DX2                !
 ! D109  D(19,20,21,22)          0.0025         estimate D2E/DX2                !
 ! D110  D(19,20,21,36)       -179.9997         estimate D2E/DX2                !
 ! D111  D(30,20,21,22)       -179.9984         estimate D2E/DX2                !
 ! D112  D(30,20,21,36)         -0.0006         estimate D2E/DX2                !
 ! D113  D(19,20,30,42)       -179.9923         estimate D2E/DX2                !
 ! D114  D(21,20,30,42)          0.0085         estimate D2E/DX2                !
 ! D115  D(20,21,22,17)         -0.0046         estimate D2E/DX2                !
 ! D116  D(20,21,22,24)        179.9957         estimate D2E/DX2                !
 ! D117  D(36,21,22,17)        179.9976         estimate D2E/DX2                !
 ! D118  D(36,21,22,24)         -0.002          estimate D2E/DX2                !
 ! D119  D(17,22,24,43)          0.0414         estimate D2E/DX2                !
 ! D120  D(21,22,24,43)       -179.959          estimate D2E/DX2                !
 ! D121  D(3,23,43,7)           -0.0325         estimate D2E/DX2                !
 ! D122  D(3,23,43,8)           -0.0279         estimate D2E/DX2                !
 ! D123  D(3,23,43,15)         179.9018         estimate D2E/DX2                !
 ! D124  D(3,23,43,16)         179.9664         estimate D2E/DX2                !
 ! D125  D(22,24,43,7)         179.947          estimate D2E/DX2                !
 ! D126  D(22,24,43,8)         179.9357         estimate D2E/DX2                !
 ! D127  D(22,24,43,15)         -0.0647         estimate D2E/DX2                !
 ! D128  D(22,24,43,16)         -0.0477         estimate D2E/DX2                !
 --------------------------------------------------------------------------------
 Trust Radius=3.00D-01 FncErr=1.00D-07 GrdErr=1.00D-06 EigMax=2.50D+02 EigMin=1.00D-04
 Number of steps in this run=    258 maximum allowed number of steps=    258.
 GradGradGradGradGradGradGradGradGradGradGradGradGradGradGradGradGradGrad

                          Input orientation:                          
 ---------------------------------------------------------------------
 Center     Atomic      Atomic             Coordinates (Angstroms)
 Number     Number       Type             X           Y           Z
 ---------------------------------------------------------------------
      1          6           0        0.567233    4.198395    0.001025
      2          6           0        0.606373    2.817748    0.000818
      3          6           0        1.883863    2.112236   -0.000224
      4          6           0        3.111642    2.844538   -0.001089
      5          6           0        3.062865    4.209298   -0.000903
      6          6           0        1.782877    4.900131    0.000142
      7          6           0       -0.538983    1.955673    0.001424
      8          6           0       -1.589714    1.278603    0.001390
      9          6           0       -2.834747    0.582016    0.000847
     10          6           0       -4.082912    1.227444    0.001319
     11          6           0       -5.240244    0.467079    0.000441
     12          6           0       -5.177172   -0.963612   -0.000952
     13          6           0       -3.943279   -1.606887   -0.001380
     14          6           0       -2.772065   -0.846187   -0.000477
     15          6           0       -1.461499   -1.424574   -0.000704
     16          6           0       -0.354543   -1.999745   -0.000706
     17          6           0        0.870607   -2.752177   -0.000385
     18          6           0        0.958403   -4.128181   -0.000072
     19          6           0        2.236510   -4.714707    0.000321
     20          6           0        3.445242   -3.908703    0.000408
     21          6           0        3.365527   -2.544825    0.000098
     22          6           0        2.074824   -1.930313   -0.000256
     23          6           0        1.717207    0.743271   -0.000178
     24          6           0        1.781560   -0.581997   -0.000518
     25          8           0        4.087056    5.062409   -0.001679
     26          8           0        1.771381    6.197806    0.000525
     27          8           0       -6.486218    0.941446    0.000757
     28          8           0       -6.288116   -1.670991   -0.001804
     29          8           0        2.343917   -6.007083    0.000564
     30          8           0        4.544876   -4.662638    0.000790
     31          1           0       -0.365900    4.761346    0.001877
     32          1           0        4.064533    2.313030   -0.001882
     33          1           0       -4.138792    2.317446    0.002360
     34          1           0       -3.918464   -2.696560   -0.002408
     35          1           0        0.081390   -4.775430   -0.000156
     36          1           0        4.264659   -1.926645    0.000154
     37          1           0        4.955375    4.640946   -0.002257
     38          1           0        2.676668    6.558474   -0.000283
     39          1           0       -6.536478    1.904592    0.001618
     40          1           0       -7.064810   -1.090416   -0.001366
     41          1           0        3.278615   -6.283603    0.000793
     42          1           0        5.370269   -4.162443    0.000978
     43         28           0        0.026154   -0.001981    0.000179
 ---------------------------------------------------------------------
                    Distance matrix (angstroms):
                    1          2          3          4          5
     1  C    0.000000
     2  C    1.381202   0.000000
     3  C    2.466896   1.459359   0.000000
     4  C    2.882178   2.505413   1.429583   0.000000
     5  C    2.495657   2.823255   2.405767   1.365631   0.000000
     6  C    1.403647   2.391753   2.789723   2.447668   1.454517
     7  C    2.500703   1.433532   2.427900   3.757280   4.248781
     8  C    3.630097   2.681747   3.572210   4.955291   5.498679
     9  C    4.965044   4.103633   4.960530   6.362276   6.923800
    10  C    5.518188   4.951612   6.032020   7.374050   7.742970
    11  C    6.902862   6.301474   7.311596   8.683681   9.107460
    12  C    7.722986   6.909999   7.701887   9.121757   9.729194
    13  C    7.351600   6.346395   6.912848   8.341888   9.105716
    14  C    6.049688   4.983800   5.516333   6.945463   7.720385
    15  C    5.977753   4.719470   4.868313   6.256112   7.225675
    16  C    6.266308   4.912393   4.681757   5.956636   7.087376
    17  C    6.957190   5.576189   4.968823   6.028719   7.298502
    18  C    8.335759   6.954844   6.308667   7.297619   8.598972
    19  C    9.068069   7.706830   6.836045   7.609733   8.962183
    20  C    8.602789   7.300981   6.220097   6.761476   8.127002
    21  C    7.300785   6.030765   4.887079   5.395340   6.760901
    22  C    6.311410   4.969953   4.047057   4.886123   6.218605
    23  C    3.641473   2.353170   1.379072   2.521859   3.718083
    24  C    4.932215   3.597128   2.696175   3.675631   4.959662
    25  O    3.624318   4.141698   3.682062   2.422888   1.332954
    26  O    2.334013   3.575197   4.087118   3.611192   2.371096
    27  O    7.769098   7.336577   8.451568   9.784717  10.092762
    28  O    9.024717   8.226953   9.005223  10.428109  11.046205
    29  O   10.358976   8.994259   8.132342   8.884852  10.241647
    30  O    9.712855   8.453874   7.278730   7.642765   8.994866
    31  H    1.089794   2.173221   3.475517   3.970826   3.472923
    32  H    3.973124   3.494799   2.189896   1.091102   2.144568
    33  H    5.068002   4.771467   6.026151   7.269569   7.446004
    34  H    8.225685   7.133145   7.536015   8.951322   9.819869
    35  H    8.986967   7.611305   7.119610   8.200387   9.466495
    36  H    7.154514   5.991020   4.688363   4.908527   6.252528
    37  H    4.410403   4.715706   3.978513   2.574186   1.941112
    38  H    3.165389   4.275413   4.516367   3.739321   2.380709
    39  H    7.464867   7.200984   8.422901   9.693798   9.872136
    40  H    9.285451   8.609344   9.504511  10.910730  11.430519
    41  H   10.826997   9.485540   8.510902   9.129668  10.495119
    42  H    9.642239   8.450904   7.178205   7.362009   8.683903
    43  Ni   4.235083   2.878806   2.814426   4.197965   5.191964
                    6          7          8          9         10
     6  C    0.000000
     7  C    3.749782   0.000000
     8  C    4.948721   1.249984   0.000000
     9  C    6.322070   2.675344   1.426654   0.000000
    10  C    6.920702   3.617976   2.493723   1.405167   0.000000
    11  C    8.305190   4.931305   3.739645   2.408241   1.384765
    12  C    9.100866   5.480422   4.230531   2.806408   2.449109
    13  C    8.667765   4.927583   3.723618   2.453598   2.837770
    14  C    7.332644   3.582887   2.431602   1.429578   2.453216
    15  C    7.108296   3.503871   2.706217   2.431505   3.728942
    16  C    7.223355   3.959716   3.503315   3.580070   4.931074
    17  C    7.706494   4.914346   4.722327   4.984626   6.354112
    18  C    9.065880   6.265417   5.977141   6.047640   7.355106
    19  C    9.625533   7.224772   7.110538   7.333002   8.674345
    20  C    8.964319   7.089778   7.229034   7.720416   9.113348
    21  C    7.611317   5.958161   6.258835   6.944101   8.349207
    22  C    6.836680   4.683255   4.870932   5.515042   6.920198
    23  C    4.157379   2.561311   3.349972   4.554809   5.820293
    24  C    5.482128   3.438705   3.850626   4.760800   6.137272
    25  O    2.309887   5.572437   6.822237   8.245319   9.025261
    26  O    1.297726   4.830474   5.957812   7.263161   7.679664
    27  O    9.167831   6.033097   4.908098   3.669118   2.420263
    28  O   10.407717   6.797443   5.547531   4.123325   3.641958
    29  O   10.921634   8.468565   8.279775   8.380620   9.676906
    30  O    9.953652   8.345518   8.539996   9.053465  10.446616
    31  H    2.153255   2.811007   3.691506   4.854071   5.128805
    32  H    3.449500   4.617367   5.748092   7.113120   8.219451
    33  H    6.460374   3.617942   2.752634   2.170772   1.091434
    34  H    9.498158   5.750146   4.607061   3.453044   3.927450
    35  H    9.824029   6.759631   6.280438   6.099679   7.305882
    36  H    7.263891   6.176356   6.674376   7.529605   8.923577
    37  H    3.183069   6.115446   7.358230   8.784129   9.661400
    38  H    1.883869   5.614819   6.788156   8.129806   8.608821
    39  H    8.842224   5.997713   4.986215   3.930906   2.545293
    40  H   10.684953   7.201742   5.965646   4.548677   3.776797
    41  H   11.283312   9.080734   8.993753   9.192928  10.517029
    42  H    9.746775   8.505916   8.834384   9.477984  10.881797
    43  Ni   5.207377   2.037594   2.061777   2.919899   4.289045
                   11         12         13         14         15
    11  C    0.000000
    12  C    1.432081   0.000000
    13  C    2.446110   1.391508   0.000000
    14  C    2.795814   2.407972   1.396570   0.000000
    15  C    4.225786   3.744157   2.488467   1.432520   0.000000
    16  C    5.473143   4.932679   3.610175   2.678639   1.247467
    17  C    6.906961   6.306710   4.948251   4.111187   2.683514
    18  C    7.716193   6.903606   5.512115   4.968690   3.628418
    19  C    9.096854   8.308634   6.917249   6.328607   4.949772
    20  C    9.725489   9.111508   7.738773   6.930650   5.499728
    21  C    9.117613   8.687804   7.368743   6.368313   4.955315
    22  C    7.697903   7.316144   6.026788   4.966655   3.572304
    23  C    6.962931   7.102529   6.128976   4.762346   3.847561
    24  C    7.099739   6.969188   5.815856   4.561282   3.350726
    25  O   10.397865  11.051645  10.438668   9.053124   8.536241
    26  O    9.055612   9.978392   9.673188   8.382168   8.279625
    27  O    1.333220   2.311461   3.600076   4.121961   5.553904
    28  O    2.381047   1.317035   2.345713   3.611498   4.832903
    29  O    9.971673   9.055572   7.674019   7.266920   5.956558
    30  O   11.048193  10.401972   9.021441   8.252450   6.823606
    31  H    6.496150   7.478201   7.304248   6.101972   6.282193
    32  H    9.486117   9.805381   8.915761   7.531250   6.671335
    33  H    2.153383   3.441451   3.929202   3.446233   4.601154
    34  H    3.428662   2.141835   1.089956   2.176721   2.766700
    35  H    7.470187   6.494800   5.122268   4.856043   3.689003
    36  H    9.801688   9.490817   8.214164   7.119191   5.748127
    37  H   11.016888  11.579274  10.872969   9.477445   8.829881
    38  H    9.989124  10.874952  10.511747   9.193351   8.991856
    39  H    1.935631   3.174006   4.365223   4.662359   6.069495
    40  H    2.398924   1.891892   3.163969   4.299687   5.613266
    41  H   10.869345   9.990127   8.603919   8.134877   6.788140
    42  H   11.576505  11.021844   9.657797   8.791767   7.359958
    43  Ni   5.287246   5.291440   4.281603   2.922792   2.058369
                   16         17         18         19         20
    16  C    0.000000
    17  C    1.437757   0.000000
    18  C    2.500813   1.378802   0.000000
    19  C    3.752942   2.391070   1.406261   0.000000
    20  C    4.252351   2.822463   2.496505   1.452816   0.000000
    21  C    3.759792   2.503522   2.881191   2.446031   1.366206
    22  C    2.430359   1.457943   2.465161   2.789085   2.406673
    23  C    3.437482   3.596511   4.930196   5.482627   4.962557
    24  C    2.563776   2.353618   3.640468   4.157676   3.719518
    25  O    8.342771   8.450639   9.708523   9.950705   8.994041
    26  O    8.468731   8.995198  10.357941  10.922421  10.244185
    27  O    6.800592   8.231994   9.006859  10.396059  11.052504
    28  O    5.942674   7.239909   7.651786   9.051710   9.987273
    29  O    4.831195   3.572822   2.334507   1.296832   2.369834
    30  O    5.576317   4.141270   3.626077   2.308953   1.333272
    31  H    6.761101   7.614590   8.987629   9.826908   9.470721
    32  H    6.174809   5.988112   7.151031   7.261595   6.252479
    33  H    5.740966   7.127073   8.217512   9.491873   9.812365
    34  H    3.631403   4.789394   5.082654   6.477394   7.462805
    35  H    2.809709   2.171731   1.089992   2.155975   3.473718
    36  H    4.619780   3.493006   3.972164   3.447706   2.144761
    37  H    8.502588   8.446514   9.637083   9.742714   8.681993
    38  H    9.079171   9.484202  10.823910  11.281771  10.495356
    39  H    7.311646   8.749309   9.621205  10.990015  11.551153
    40  H    6.771600   8.107545   8.579042   9.982487  10.881357
    41  H    5.617052   4.274280   3.166896   1.883459   2.380738
    42  H    6.119701   4.715486   4.411999   3.182050   1.941678
    43  Ni   2.033714   2.876922   4.230203   5.205330   5.191593
                   21         22         23         24         25
    21  C    0.000000
    22  C    1.429524   0.000000
    23  C    3.678116   2.697395   0.000000
    24  C    2.522230   1.379841   1.326830   0.000000
    25  O    7.641375   7.276485   4.926575   6.097100   0.000000
    26  O    8.886782   8.133781   5.454804   6.779811   2.579047
    27  O   10.450405   9.029864   8.205818   8.406963  11.347972
    28  O    9.693112   8.366960   8.361451   8.142824  12.368624
    29  O    3.609836   4.085641   6.779384   5.454155  11.205900
    30  O    2.424045   3.683308   6.100784   4.928240   9.735818
    31  H    8.203882   7.122881   4.525955   5.758724   4.463123
    32  H    4.907888   4.686673   2.823842   3.686889   2.749471
    33  H    8.941839   7.526785   6.063890   6.592219   8.671760
    34  H    7.285572   6.042073   6.602517   6.079610  11.148540
    35  H    3.970032   3.473970   5.756037   4.524982  10.622073
    36  H    1.091139   2.189838   3.690252   2.823802   6.991310
    37  H    7.359547   7.174888   5.067308   6.111648   0.965199
    38  H    9.129325   8.510095   5.893823   7.196356   2.056066
    39  H   10.855737   9.426612   8.334986   8.681756  11.082928
    40  H   10.531251   9.178145   8.971412   8.860968  12.736615
    41  H    3.739788   4.516663   7.198260   5.894869  11.374778
    42  H    2.575981   3.980247   6.116444   5.069362   9.313675
    43  Ni   4.197317   2.813452   1.847988   1.848748   6.491454
                   26         27         28         29         30
    26  O    0.000000
    27  O    9.788629   0.000000
    28  O   11.263812   2.619939   0.000000
    29  O   12.218311  11.236251   9.659901   0.000000
    30  O   11.208993  12.372986  11.238491   2.579099   0.000000
    31  H    2.575148   7.214564   8.743433  11.104151  10.626721
    32  H    4.511101  10.639530  11.092780   8.496164   6.992187
    33  H    7.070173   2.720990   4.530700  10.550986  11.141260
    34  H   10.558603   4.452916   2.582062   7.083572   8.688705
    35  H   11.102611   8.707247   7.085771   2.576043   4.464911
    36  H    8.498420  11.126873  10.555871   4.509903   2.750305
    37  H    3.544240  12.024823  12.894054  10.963587   9.312636
    38  H    0.974488  10.747534  12.169283  12.569962  11.375568
    39  H    9.351589   0.964457   3.584200  11.893528  12.881185
    40  H   11.454102   2.112637   0.969702  10.615920  12.146834
    41  H   12.572085  12.147152  10.620666   0.974743   2.056926
    42  H   10.967532  12.908368  11.921631   3.544221   0.965126
    43  Ni   6.440743   6.580353   6.531126   6.436868   6.491577
                   31         32         33         34         35
    31  H    0.000000
    32  H    5.061917   0.000000
    33  H    4.495260   8.203327   0.000000
    34  H    8.260817   9.424661   5.018847   0.000000
    35  H    9.547260   8.130910   8.253413   4.507831   0.000000
    36  H    8.134575   4.244396   9.414367   8.219263   5.061158
    37  H    5.322639   2.492547   9.386296  11.514513  10.603012
    38  H    3.533680   4.466539   8.027255  11.364481  11.627246
    39  H    6.799785  10.608877   2.432971   5.293828   9.403131
    40  H    8.894859  11.638115   4.491672   3.532590   8.040367
    41  H   11.630709   8.632484  11.357639   8.041445   3.535086
    42  H   10.608376   6.605808  11.507007   9.403690   5.324284
    43  Ni   4.779434   4.654867   4.767234   4.777109   4.773769
                   36         37         38         39         40
    36  H    0.000000
    37  H    6.603813   0.000000
    38  H    8.632437   2.978158   0.000000
    39  H   11.460495  11.813142  10.321855   0.000000
    40  H   11.360288  13.316657  12.385553   3.041252   0.000000
    41  H    4.467143  11.052480  12.856177  12.782120  11.573921
    42  H    2.494227   8.813161  11.054119  13.363366  12.808924
    43  Ni   4.655025   6.771558   7.075648   6.833971   7.174013
                   41         42         43
    41  H    0.000000
    42  H    2.978982   0.000000
    43  Ni   7.073703   6.772666   0.000000
 Stoichiometry    C24H12NiO6(2+,3)
 Framework group  C1[X(C24H12NiO6)]
 Deg. of freedom   123
 Full point group                 C1      NOp   1
 Largest Abelian subgroup         C1      NOp   1
 Largest concise Abelian subgroup C1      NOp   1
                         Standard orientation:                         
 ---------------------------------------------------------------------
 Center     Atomic      Atomic             Coordinates (Angstroms)
 Number     Number       Type             X           Y           Z
 ---------------------------------------------------------------------
      1          6           0       -0.567232    4.198395   -0.001025
      2          6           0       -0.606372    2.817748   -0.000818
      3          6           0       -1.883862    2.112237    0.000224
      4          6           0       -3.111641    2.844539    0.001089
      5          6           0       -3.062864    4.209299    0.000903
      6          6           0       -1.782876    4.900131   -0.000142
      7          6           0        0.538984    1.955673   -0.001424
      8          6           0        1.589714    1.278603   -0.001390
      9          6           0        2.834747    0.582015   -0.000847
     10          6           0        4.082912    1.227443   -0.001319
     11          6           0        5.240244    0.467077   -0.000441
     12          6           0        5.177172   -0.963614    0.000952
     13          6           0        3.943279   -1.606888    0.001380
     14          6           0        2.772065   -0.846188    0.000477
     15          6           0        1.461499   -1.424574    0.000704
     16          6           0        0.354542   -1.999745    0.000706
     17          6           0       -0.870608   -2.752177    0.000385
     18          6           0       -0.958404   -4.128181    0.000072
     19          6           0       -2.236511   -4.714706   -0.000321
     20          6           0       -3.445243   -3.908702   -0.000408
     21          6           0       -3.365528   -2.544824   -0.000098
     22          6           0       -2.074825   -1.930312    0.000256
     23          6           0       -1.717207    0.743271    0.000178
     24          6           0       -1.781560   -0.581997    0.000518
     25          8           0       -4.087055    5.062410    0.001679
     26          8           0       -1.771379    6.197806   -0.000525
     27          8           0        6.486218    0.941444   -0.000757
     28          8           0        6.288115   -1.670993    0.001804
     29          8           0       -2.343919   -6.007082   -0.000564
     30          8           0       -4.544877   -4.662637   -0.000790
     31          1           0        0.365901    4.761346   -0.001877
     32          1           0       -4.064532    2.313031    0.001882
     33          1           0        4.138793    2.317445   -0.002360
     34          1           0        3.918463   -2.696561    0.002408
     35          1           0       -0.081391   -4.775430    0.000156
     36          1           0       -4.264660   -1.926644   -0.000154
     37          1           0       -4.955374    4.640947    0.002257
     38          1           0       -2.676666    6.558475    0.000283
     39          1           0        6.536479    1.904590   -0.001618
     40          1           0        7.064810   -1.090418    0.001366
     41          1           0       -3.278617   -6.283602   -0.000793
     42          1           0       -5.370270   -4.162441   -0.000978
     43         28           0       -0.026154   -0.001981   -0.000179
 ---------------------------------------------------------------------
 Rotational constants (GHZ):           0.1188399           0.1158236           0.0586562
 Standard basis: def2SVP (5D, 7F)
 There are   546 symmetry adapted cartesian basis functions of A   symmetry.
 There are   511 symmetry adapted basis functions of A   symmetry.
   511 basis functions,   915 primitive gaussians,   546 cartesian basis functions
   116 alpha electrons      114 beta electrons
       nuclear repulsion energy      3292.3168069317 Hartrees.
 NAtoms=   43 NActive=   43 NUniq=   43 SFac= 1.00D+00 NAtFMM=   60 NAOKFM=F Big=F
 Integral buffers will be    131072 words long.
 Raffenetti 2 integral format.
 Two-electron integral symmetry is turned on.
 Nuclear repulsion after empirical dispersion term =     3292.2855222036 Hartrees.
 ------------------------------------------------------------------------------
 Polarizable Continuum Model (PCM)
 =================================
 Model                : PCM.
 Atomic radii         : SMD-Coulomb.
 Polarization charges : Total charges.
 Charge compensation  : None.
 Solution method      : On-the-fly selection.
 Cavity type          : VdW (van der Waals Surface) (Alpha=1.000).
 Cavity algorithm     : GePol (No added spheres)
                        Default sphere list used, NSphG=   43.
                        Lebedev-Laikov grids with approx.  5.0 points / Ang**2.
                        Smoothing algorithm: York/Karplus (Gamma=1.0000).
                        Polarization charges: spherical gaussians, with
                                              point-specific exponents (IZeta= 3).
                        Self-potential: point-specific (ISelfS= 7).
                        Self-field    : sphere-specific E.n sum rule (ISelfD= 2).
 1st derivatives      : Analytical E(r).r(x)/FMM algorithm (CHGder, D1EAlg=3).
                        Cavity 1st derivative terms included.
 Solvent              : 2-Propanol, Eps=  19.264000 Eps(inf)=   1.897782
 ------------------------------------------------------------------------------
 ------------------------------------------------------------------------------
 Atomic radii for non-electrostatic terms: SMD-CDS.
 ------------------------------------------------------------------------------
 Nuclear repulsion after PCM non-electrostatic terms =     3292.2868357866 Hartrees.
 One-electron integrals computed using PRISM.
   1 Symmetry operations used in ECPInt.
 ECPInt:  NShTT=   25878 NPrTT=  101491 LenC2=   20499 LenP2D=   52331.
 LDataN:  DoStor=T MaxTD1= 6 Len=  172
 NBasis=   511 RedAO= T EigKep=  1.78D-04  NBF=   511
 NBsUse=   511 1.00D-06 EigRej= -1.00D+00 NBFU=   511
 ExpMin= 3.81D-02 ExpMax= 7.11D+04 ExpMxC= 1.07D+04 IAcc=3 IRadAn=         5 AccDes= 0.00D+00
 Harris functional with IExCor= 4639 and IRadAn=       5 diagonalized for initial guess.
 HarFok:  IExCor= 4639 AccDes= 0.00D+00 IRadAn=         5 IDoV= 1 UseB2=F ITyADJ=14
 ICtDFT=  3500011 ScaDFX=  1.000000  1.000000  1.000000  1.000000
 FoFCou: FMM=F IPFlag=           0 FMFlag=      100000 FMFlg1=           0
         NFxFlg=           0 DoJE=T BraDBF=F KetDBF=T FulRan=T
         wScrn=  0.000000 ICntrl=       500 IOpCl=  0 I1Cent=   200000004 NGrid=           0
         NMat0=    1 NMatS0=      1 NMatT0=    0 NMatD0=    1 NMtDS0=    0 NMtDT0=    0
 Petite list used in FoFCou.
 Initial guess <Sx>= 0.0000 <Sy>= 0.0000 <Sz>= 1.0000 <S**2>= 2.0000 S= 1.0000
 Requested convergence on RMS density matrix=1.00D-08 within  32 cycles.
 Requested convergence on MAX density matrix=1.00D-06.
 Requested convergence on             energy=1.00D-06.
 No special actions if energy rises.
 Inv3:  Mode=1 IEnd=    34374675.
 Iteration    1 A*A^-1 deviation from unit magnitude is 3.55D-15 for   1529.
 Iteration    1 A*A^-1 deviation from orthogonality  is 2.22D-15 for   3271    480.
 Iteration    1 A^-1*A deviation from unit magnitude is 3.55D-15 for   1529.
 Iteration    1 A^-1*A deviation from orthogonality  is 3.49D-14 for   3309   3271.
 EnCoef did   100 forward-backward iterations
 EnCoef did   100 forward-backward iterations
 Restarting incremental Fock formation.
 >>>>>>>>>> Convergence criterion not met.
 Error on total polarization charges =  0.03940
 SCF Done:  E(UwB97XD) =  -2879.38066224     A.U. after   33 cycles
            NFock= 32  Conv=0.18D-05     -V/T= 2.0055
 <Sx>= 0.0000 <Sy>= 0.0000 <Sz>= 1.0000 <S**2>= 2.0505 S= 1.0167
 <L.S>=  0.00000000000    
 SMD-CDS (non-electrostatic) energy       (kcal/mol) =       0.82
 (included in total energy above)
 Annihilation of the first spin contaminant:
 S**2 before annihilation     2.0505,   after     2.0010
 LinEq1:  Iter=  0 NonCon=     1 RMS=1.08D-06 Max=1.87D-04 NDo=     1
 AX will form     1 AO Fock derivatives at one time.
 LinEq1:  Iter=  1 NonCon=     1 RMS=2.98D-07 Max=2.20D-05 NDo=     1
 LinEq1:  Iter=  2 NonCon=     1 RMS=2.19D-07 Max=1.82D-05 NDo=     1
 LinEq1:  Iter=  3 NonCon=     1 RMS=1.92D-07 Max=1.97D-05 NDo=     1
 LinEq1:  Iter=  4 NonCon=     1 RMS=6.65D-08 Max=3.68D-06 NDo=     1
 LinEq1:  Iter=  5 NonCon=     1 RMS=5.02D-08 Max=3.80D-06 NDo=     1
 LinEq1:  Iter=  6 NonCon=     1 RMS=2.45D-08 Max=1.73D-06 NDo=     1
 LinEq1:  Iter=  7 NonCon=     1 RMS=1.69D-08 Max=2.03D-06 NDo=     1
 LinEq1:  Iter=  8 NonCon=     1 RMS=9.92D-09 Max=8.79D-07 NDo=     1
 LinEq1:  Iter=  9 NonCon=     1 RMS=6.15D-09 Max=5.88D-07 NDo=     1
 LinEq1:  Iter= 10 NonCon=     1 RMS=3.14D-09 Max=2.72D-07 NDo=     1
 LinEq1:  Iter= 11 NonCon=     1 RMS=1.65D-09 Max=1.02D-07 NDo=     1
 LinEq1:  Iter= 12 NonCon=     1 RMS=1.03D-09 Max=6.59D-08 NDo=     1
 LinEq1:  Iter= 13 NonCon=     1 RMS=4.94D-10 Max=3.31D-08 NDo=     1
 LinEq1:  Iter= 14 NonCon=     1 RMS=3.06D-10 Max=2.06D-08 NDo=     1
 LinEq1:  Iter= 15 NonCon=     1 RMS=1.62D-10 Max=1.57D-08 NDo=     1
 LinEq1:  Iter= 16 NonCon=     1 RMS=1.08D-10 Max=1.30D-08 NDo=     1
 LinEq1:  Iter= 17 NonCon=     0 RMS=8.79D-11 Max=1.09D-08 NDo=     1
 Linear equations converged to 1.149D-09 1.149D-08 after    17 iterations.
 LinEq1:  Iter=  0 NonCon=     1 RMS=2.86D-06 Max=2.90D-04 NDo=     1
 LinEq1:  Iter=  1 NonCon=     1 RMS=4.07D-06 Max=4.95D-04 NDo=     1
 LinEq1:  Iter=  2 NonCon=     1 RMS=2.15D-06 Max=3.00D-04 NDo=     1
 LinEq1:  Iter=  3 NonCon=     1 RMS=1.53D-06 Max=1.82D-04 NDo=     1
 LinEq1:  Iter=  4 NonCon=     1 RMS=7.28D-07 Max=4.22D-05 NDo=     1
 LinEq1:  Iter=  5 NonCon=     1 RMS=5.00D-07 Max=3.66D-05 NDo=     1
 LinEq1:  Iter=  6 NonCon=     1 RMS=3.17D-07 Max=3.82D-05 NDo=     1
 LinEq1:  Iter=  7 NonCon=     1 RMS=1.68D-07 Max=1.62D-05 NDo=     1
 LinEq1:  Iter=  8 NonCon=     1 RMS=9.17D-08 Max=5.42D-06 NDo=     1
 LinEq1:  Iter=  9 NonCon=     1 RMS=4.70D-08 Max=2.18D-06 NDo=     1
 LinEq1:  Iter= 10 NonCon=     1 RMS=2.71D-08 Max=2.11D-06 NDo=     1
 LinEq1:  Iter= 11 NonCon=     1 RMS=1.54D-08 Max=1.52D-06 NDo=     1
 LinEq1:  Iter= 12 NonCon=     1 RMS=9.45D-09 Max=1.39D-06 NDo=     1
 LinEq1:  Iter= 13 NonCon=     1 RMS=6.09D-09 Max=6.41D-07 NDo=     1
 LinEq1:  Iter= 14 NonCon=     1 RMS=3.82D-09 Max=2.77D-07 NDo=     1
 LinEq1:  Iter= 15 NonCon=     0 RMS=2.33D-09 Max=9.55D-08 NDo=     1
 Linear equations converged to 1.241D-08 1.241D-07 after    15 iterations.
     Accept linear search using points  1 and  2.
     Minimum is close to point  2 DX= -3.91D-02 DF= -6.90D-10 DXR=  4.07D-02 DFR=  1.64D-03 which will be used.
 LinEq1:  Iter=  0 NonCon=     1 RMS=8.68D-07 Max=3.55D-05 NDo=     1
 LinEq1:  Iter=  1 NonCon=     1 RMS=7.33D-07 Max=7.95D-05 NDo=     1
 LinEq1:  Iter=  2 NonCon=     1 RMS=4.47D-07 Max=4.48D-05 NDo=     1
 LinEq1:  Iter=  3 NonCon=     1 RMS=3.10D-07 Max=2.95D-05 NDo=     1
 LinEq1:  Iter=  4 NonCon=     1 RMS=2.34D-07 Max=1.55D-05 NDo=     1
 LinEq1:  Iter=  5 NonCon=     1 RMS=3.08D-07 Max=2.02D-05 NDo=     1
 LinEq1:  Iter=  6 NonCon=     1 RMS=2.38D-07 Max=1.21D-05 NDo=     1
 LinEq1:  Iter=  7 NonCon=     1 RMS=1.54D-07 Max=1.01D-05 NDo=     1
 LinEq1:  Iter=  8 NonCon=     1 RMS=8.06D-08 Max=5.50D-06 NDo=     1
 LinEq1:  Iter=  9 NonCon=     1 RMS=4.64D-08 Max=3.51D-06 NDo=     1
 LinEq1:  Iter= 10 NonCon=     1 RMS=2.71D-08 Max=3.02D-06 NDo=     1
 LinEq1:  Iter= 11 NonCon=     1 RMS=1.42D-08 Max=1.25D-06 NDo=     1
 LinEq1:  Iter= 12 NonCon=     1 RMS=9.58D-09 Max=7.41D-07 NDo=     1
 LinEq1:  Iter= 13 NonCon=     1 RMS=5.87D-09 Max=4.54D-07 NDo=     1
 LinEq1:  Iter= 14 NonCon=     1 RMS=3.78D-09 Max=2.49D-07 NDo=     1
 LinEq1:  Iter= 15 NonCon=     1 RMS=2.29D-09 Max=2.39D-07 NDo=     1
 LinEq1:  Iter= 16 NonCon=     1 RMS=1.16D-09 Max=5.46D-08 NDo=     1
 LinEq1:  Iter= 17 NonCon=     1 RMS=7.62D-10 Max=5.78D-08 NDo=     1
 LinEq1:  Iter= 18 NonCon=     0 RMS=4.34D-10 Max=4.12D-08 NDo=     1
 Linear equations converged to 5.081D-09 5.081D-08 after    18 iterations.
 Incorrect curvature in search direction -- initial direction reversed.
 Gradient too large for Newton-Raphson -- use scaled steepest descent instead.
 LinEq1:  Iter=  0 NonCon=     1 RMS=1.12D-05 Max=6.92D-04 NDo=     1
 LinEq1:  Iter=  1 NonCon=     1 RMS=1.68D-05 Max=1.21D-03 NDo=     1
 LinEq1:  Iter=  2 NonCon=     1 RMS=1.47D-05 Max=9.14D-04 NDo=     1
 LinEq1:  Iter=  3 NonCon=     1 RMS=1.09D-05 Max=8.50D-04 NDo=     1
 LinEq1:  Iter=  4 NonCon=     1 RMS=6.23D-06 Max=3.89D-04 NDo=     1
 LinEq1:  Iter=  5 NonCon=     1 RMS=3.76D-06 Max=2.38D-04 NDo=     1
 LinEq1:  Iter=  6 NonCon=     1 RMS=2.05D-06 Max=1.31D-04 NDo=     1
 LinEq1:  Iter=  7 NonCon=     1 RMS=1.23D-06 Max=1.14D-04 NDo=     1
 LinEq1:  Iter=  8 NonCon=     1 RMS=6.53D-07 Max=6.82D-05 NDo=     1
 LinEq1:  Iter=  9 NonCon=     1 RMS=4.04D-07 Max=4.74D-05 NDo=     1
 LinEq1:  Iter= 10 NonCon=     1 RMS=1.55D-07 Max=1.24D-05 NDo=     1
 LinEq1:  Iter= 11 NonCon=     1 RMS=1.00D-07 Max=4.72D-06 NDo=     1
 LinEq1:  Iter= 12 NonCon=     1 RMS=5.35D-08 Max=2.93D-06 NDo=     1
 LinEq1:  Iter= 13 NonCon=     1 RMS=3.53D-08 Max=2.16D-06 NDo=     1
 LinEq1:  Iter= 14 NonCon=     1 RMS=2.05D-08 Max=1.06D-06 NDo=     1
 LinEq1:  Iter= 15 NonCon=     1 RMS=1.15D-08 Max=5.63D-07 NDo=     1
 LinEq1:  Iter= 16 NonCon=     1 RMS=7.18D-09 Max=4.33D-07 NDo=     1
 LinEq1:  Iter= 17 NonCon=     1 RMS=4.62D-09 Max=3.62D-07 NDo=     1
 LinEq1:  Iter= 18 NonCon=     0 RMS=1.99D-09 Max=1.46D-07 NDo=     1
 Linear equations converged to 3.018D-08 3.018D-07 after    18 iterations.
 Incorrect curvature in search direction -- initial direction reversed.
     Accept linear search using points  4 and  5.
 Gradient too large for Newton-Raphson -- use scaled steepest descent instead.
 Restarting incremental Fock formation.
     Accept linear search using points  2 and  3.
 LinEq1:  Iter=  0 NonCon=     1 RMS=4.15D-05 Max=4.88D-03 NDo=     1
 LinEq1:  Iter=  1 NonCon=     1 RMS=4.22D-05 Max=5.13D-03 NDo=     1
 LinEq1:  Iter=  2 NonCon=     1 RMS=1.66D-05 Max=1.48D-03 NDo=     1
 LinEq1:  Iter=  3 NonCon=     1 RMS=1.25D-05 Max=7.80D-04 NDo=     1
 LinEq1:  Iter=  4 NonCon=     1 RMS=5.63D-06 Max=4.80D-04 NDo=     1
 LinEq1:  Iter=  5 NonCon=     1 RMS=5.50D-06 Max=3.46D-04 NDo=     1
 LinEq1:  Iter=  6 NonCon=     1 RMS=5.53D-06 Max=3.67D-04 NDo=     1
 LinEq1:  Iter=  7 NonCon=     1 RMS=4.56D-06 Max=5.20D-04 NDo=     1
 LinEq1:  Iter=  8 NonCon=     1 RMS=2.26D-06 Max=2.17D-04 NDo=     1
 LinEq1:  Iter=  9 NonCon=     1 RMS=1.13D-06 Max=7.49D-05 NDo=     1
 LinEq1:  Iter= 10 NonCon=     1 RMS=5.51D-07 Max=6.06D-05 NDo=     1
 LinEq1:  Iter= 11 NonCon=     1 RMS=3.34D-07 Max=3.56D-05 NDo=     1
 LinEq1:  Iter= 12 NonCon=     1 RMS=1.88D-07 Max=1.03D-05 NDo=     1
 LinEq1:  Iter= 13 NonCon=     1 RMS=1.30D-07 Max=9.82D-06 NDo=     1
 LinEq1:  Iter= 14 NonCon=     1 RMS=6.89D-08 Max=4.11D-06 NDo=     1
 LinEq1:  Iter= 15 NonCon=     1 RMS=3.62D-08 Max=2.19D-06 NDo=     1
 LinEq1:  Iter= 16 NonCon=     1 RMS=1.69D-08 Max=8.24D-07 NDo=     1
 LinEq1:  Iter= 17 NonCon=     1 RMS=1.13D-08 Max=6.22D-07 NDo=     1
 LinEq1:  Iter= 18 NonCon=     1 RMS=5.03D-09 Max=4.46D-07 NDo=     1
 LinEq1:  Iter= 19 NonCon=     1 RMS=3.19D-09 Max=3.15D-07 NDo=     1
 LinEq1:  Iter= 20 NonCon=     0 RMS=1.87D-09 Max=1.49D-07 NDo=     1
 Linear equations converged to 3.018D-08 3.018D-07 after    20 iterations.
 Incorrect curvature in search direction -- initial direction reversed.
 Gradient too large for Newton-Raphson -- use scaled steepest descent instead.
 Gradient too large for Newton-Raphson -- use scaled steepest descent instead.
     Accept linear search using points  1 and  2.
 LinEq1:  Iter=  0 NonCon=     1 RMS=3.95D-05 Max=5.89D-03 NDo=     1
 LinEq1:  Iter=  1 NonCon=     1 RMS=3.72D-05 Max=3.18D-03 NDo=     1
 LinEq1:  Iter=  2 NonCon=     1 RMS=2.51D-05 Max=1.59D-03 NDo=     1
 LinEq1:  Iter=  3 NonCon=     1 RMS=3.21D-05 Max=2.23D-03 NDo=     1
 LinEq1:  Iter=  4 NonCon=     1 RMS=9.36D-06 Max=8.05D-04 NDo=     1
 LinEq1:  Iter=  5 NonCon=     1 RMS=8.05D-06 Max=5.11D-04 NDo=     1
 LinEq1:  Iter=  6 NonCon=     1 RMS=3.20D-06 Max=4.27D-04 NDo=     1
 LinEq1:  Iter=  7 NonCon=     1 RMS=1.52D-06 Max=1.16D-04 NDo=     1
 LinEq1:  Iter=  8 NonCon=     1 RMS=9.45D-07 Max=7.78D-05 NDo=     1
 LinEq1:  Iter=  9 NonCon=     1 RMS=3.06D-07 Max=2.47D-05 NDo=     1
 LinEq1:  Iter= 10 NonCon=     1 RMS=2.26D-07 Max=1.74D-05 NDo=     1
 LinEq1:  Iter= 11 NonCon=     1 RMS=1.24D-07 Max=7.70D-06 NDo=     1
 LinEq1:  Iter= 12 NonCon=     1 RMS=7.52D-08 Max=4.66D-06 NDo=     1
 LinEq1:  Iter= 13 NonCon=     1 RMS=3.92D-08 Max=1.37D-06 NDo=     1
 LinEq1:  Iter= 14 NonCon=     1 RMS=1.91D-08 Max=7.88D-07 NDo=     1
 LinEq1:  Iter= 15 NonCon=     1 RMS=1.07D-08 Max=5.48D-07 NDo=     1
 LinEq1:  Iter= 16 NonCon=     1 RMS=6.68D-09 Max=5.94D-07 NDo=     1
 LinEq1:  Iter= 17 NonCon=     1 RMS=3.41D-09 Max=3.24D-07 NDo=     1
 LinEq1:  Iter= 18 NonCon=     0 RMS=2.06D-09 Max=1.53D-07 NDo=     1
 Linear equations converged to 3.018D-08 3.018D-07 after    18 iterations.
 Gradient too large for Newton-Raphson -- use scaled steepest descent instead.
     Accept linear search using points  2 and  3.
 LinEq1:  Iter=  0 NonCon=     1 RMS=3.17D-05 Max=4.29D-03 NDo=     1
 LinEq1:  Iter=  1 NonCon=     1 RMS=4.33D-05 Max=6.11D-03 NDo=     1
 LinEq1:  Iter=  2 NonCon=     1 RMS=3.30D-05 Max=2.07D-03 NDo=     1
 LinEq1:  Iter=  3 NonCon=     1 RMS=2.28D-05 Max=1.97D-03 NDo=     1
 LinEq1:  Iter=  4 NonCon=     1 RMS=1.00D-05 Max=6.80D-04 NDo=     1
 LinEq1:  Iter=  5 NonCon=     1 RMS=6.43D-06 Max=6.58D-04 NDo=     1
 LinEq1:  Iter=  6 NonCon=     1 RMS=2.96D-06 Max=2.07D-04 NDo=     1
 LinEq1:  Iter=  7 NonCon=     1 RMS=1.98D-06 Max=1.88D-04 NDo=     1
 LinEq1:  Iter=  8 NonCon=     1 RMS=1.21D-06 Max=8.15D-05 NDo=     1
 LinEq1:  Iter=  9 NonCon=     1 RMS=5.38D-07 Max=3.37D-05 NDo=     1
 LinEq1:  Iter= 10 NonCon=     1 RMS=3.23D-07 Max=1.74D-05 NDo=     1
 LinEq1:  Iter= 11 NonCon=     1 RMS=2.08D-07 Max=1.75D-05 NDo=     1
 LinEq1:  Iter= 12 NonCon=     1 RMS=1.13D-07 Max=6.83D-06 NDo=     1
 LinEq1:  Iter= 13 NonCon=     1 RMS=5.78D-08 Max=3.30D-06 NDo=     1
 LinEq1:  Iter= 14 NonCon=     1 RMS=2.76D-08 Max=1.88D-06 NDo=     1
 LinEq1:  Iter= 15 NonCon=     1 RMS=1.44D-08 Max=7.87D-07 NDo=     1
 LinEq1:  Iter= 16 NonCon=     1 RMS=6.21D-09 Max=4.42D-07 NDo=     1
 LinEq1:  Iter= 17 NonCon=     0 RMS=3.60D-09 Max=2.62D-07 NDo=     1
 Linear equations converged to 3.018D-08 3.018D-07 after    17 iterations.
     Accept linear search using points  1 and  2.
 LinEq1:  Iter=  0 NonCon=     1 RMS=7.61D-06 Max=7.96D-04 NDo=     1
 LinEq1:  Iter=  1 NonCon=     1 RMS=5.73D-06 Max=3.16D-04 NDo=     1
 LinEq1:  Iter=  2 NonCon=     1 RMS=4.44D-06 Max=4.53D-04 NDo=     1
 LinEq1:  Iter=  3 NonCon=     1 RMS=5.40D-06 Max=6.88D-04 NDo=     1
 LinEq1:  Iter=  4 NonCon=     1 RMS=2.92D-06 Max=3.86D-04 NDo=     1
 LinEq1:  Iter=  5 NonCon=     1 RMS=1.74D-06 Max=1.52D-04 NDo=     1
 LinEq1:  Iter=  6 NonCon=     1 RMS=9.47D-07 Max=7.10D-05 NDo=     1
 LinEq1:  Iter=  7 NonCon=     1 RMS=4.96D-07 Max=3.01D-05 NDo=     1
 LinEq1:  Iter=  8 NonCon=     1 RMS=2.77D-07 Max=2.20D-05 NDo=     1
 LinEq1:  Iter=  9 NonCon=     1 RMS=1.66D-07 Max=1.34D-05 NDo=     1
 LinEq1:  Iter= 10 NonCon=     1 RMS=9.05D-08 Max=6.41D-06 NDo=     1
 LinEq1:  Iter= 11 NonCon=     1 RMS=6.41D-08 Max=5.03D-06 NDo=     1
 LinEq1:  Iter= 12 NonCon=     1 RMS=4.24D-08 Max=3.91D-06 NDo=     1
 LinEq1:  Iter= 13 NonCon=     1 RMS=2.92D-08 Max=2.07D-06 NDo=     1
 LinEq1:  Iter= 14 NonCon=     1 RMS=1.41D-08 Max=1.08D-06 NDo=     1
 LinEq1:  Iter= 15 NonCon=     1 RMS=6.82D-09 Max=3.90D-07 NDo=     1
 LinEq1:  Iter= 16 NonCon=     0 RMS=3.40D-09 Max=1.76D-07 NDo=     1
 Linear equations converged to 3.018D-08 3.018D-07 after    16 iterations.
     Accept linear search using points  1 and  2.
     Minimum is close to point  2 DX= -7.54D-03 DF= -3.47D-10 DXR=  7.59D-03 DFR=  5.76D-05 which will be used.
 LinEq1:  Iter=  0 NonCon=     1 RMS=2.41D-07 Max=1.43D-05 NDo=     1
 LinEq1:  Iter=  1 NonCon=     1 RMS=1.89D-07 Max=1.22D-05 NDo=     1
 LinEq1:  Iter=  2 NonCon=     1 RMS=1.18D-07 Max=9.73D-06 NDo=     1
 LinEq1:  Iter=  3 NonCon=     1 RMS=1.20D-07 Max=7.48D-06 NDo=     1
 LinEq1:  Iter=  4 NonCon=     1 RMS=1.10D-07 Max=8.07D-06 NDo=     1
 LinEq1:  Iter=  5 NonCon=     1 RMS=6.54D-08 Max=4.82D-06 NDo=     1
 LinEq1:  Iter=  6 NonCon=     1 RMS=3.83D-08 Max=2.45D-06 NDo=     1
 LinEq1:  Iter=  7 NonCon=     1 RMS=2.18D-08 Max=1.38D-06 NDo=     1
 LinEq1:  Iter=  8 NonCon=     1 RMS=1.57D-08 Max=9.85D-07 NDo=     1
 LinEq1:  Iter=  9 NonCon=     1 RMS=1.01D-08 Max=6.34D-07 NDo=     1
 LinEq1:  Iter= 10 NonCon=     1 RMS=6.00D-09 Max=4.06D-07 NDo=     1
 LinEq1:  Iter= 11 NonCon=     1 RMS=3.68D-09 Max=2.12D-07 NDo=     1
 LinEq1:  Iter= 12 NonCon=     1 RMS=1.95D-09 Max=1.11D-07 NDo=     1
 LinEq1:  Iter= 13 NonCon=     1 RMS=1.13D-09 Max=9.23D-08 NDo=     1
 LinEq1:  Iter= 14 NonCon=     1 RMS=5.11D-10 Max=3.13D-08 NDo=     1
 LinEq1:  Iter= 15 NonCon=     0 RMS=2.62D-10 Max=1.04D-08 NDo=     1
 Linear equations converged to 1.552D-09 1.552D-08 after    15 iterations.
 LinEq1:  Iter=  0 NonCon=     1 RMS=1.86D-08 Max=7.37D-07 NDo=     1
 LinEq1:  Iter=  1 NonCon=     1 RMS=1.61D-08 Max=1.68D-06 NDo=     1
 LinEq1:  Iter=  2 NonCon=     1 RMS=9.74D-09 Max=1.10D-06 NDo=     1
 LinEq1:  Iter=  3 NonCon=     1 RMS=6.11D-09 Max=5.08D-07 NDo=     1
 LinEq1:  Iter=  4 NonCon=     1 RMS=5.29D-09 Max=3.72D-07 NDo=     1
 LinEq1:  Iter=  5 NonCon=     1 RMS=5.78D-09 Max=5.07D-07 NDo=     1
 LinEq1:  Iter=  6 NonCon=     1 RMS=3.80D-09 Max=3.78D-07 NDo=     1
 LinEq1:  Iter=  7 NonCon=     1 RMS=2.10D-09 Max=1.13D-07 NDo=     1
 LinEq1:  Iter=  8 NonCon=     1 RMS=9.44D-10 Max=6.69D-08 NDo=     1
 LinEq1:  Iter=  9 NonCon=     1 RMS=6.05D-10 Max=2.65D-08 NDo=     1
 LinEq1:  Iter= 10 NonCon=     1 RMS=3.66D-10 Max=1.95D-08 NDo=     1
 LinEq1:  Iter= 11 NonCon=     1 RMS=2.17D-10 Max=1.22D-08 NDo=     1
 LinEq1:  Iter= 12 NonCon=     1 RMS=1.49D-10 Max=8.93D-09 NDo=     1
 LinEq1:  Iter= 13 NonCon=     1 RMS=1.00D-10 Max=5.80D-09 NDo=     1
 LinEq1:  Iter= 14 NonCon=     1 RMS=6.44D-11 Max=4.94D-09 NDo=     1
 LinEq1:  Iter= 15 NonCon=     1 RMS=3.03D-11 Max=1.47D-09 NDo=     1
 LinEq1:  Iter= 16 NonCon=     0 RMS=1.24D-11 Max=4.82D-10 NDo=     1
 Linear equations converged to 7.202D-11 7.202D-10 after    16 iterations.
 Restarting incremental Fock formation.
 Error on total polarization charges =  0.03919
 SCF Done:  E(UwB97XD) =  -2879.38415868     a.u. after   16 cycles
            Convg  =    0.4884D-06                   211 Fock formations.
              S**2 =  2.0671                  -V/T =  2.0055
 <Sx>= 0.0000 <Sy>= 0.0000 <Sz>= 1.0000 <S**2>= 2.0671 S= 1.0222
 <L.S>=  0.00000000000    
 SMD-CDS (non-electrostatic) energy       (kcal/mol) =       0.82
 (included in total energy above)
 Annihilation of the first spin contaminant:
 S**2 before annihilation     2.0671,   after     2.0019

 **********************************************************************

            Population analysis using the SCF density.

 **********************************************************************

 Orbital symmetries:
 Alpha Orbitals:
       Occupied  (A) (A) (A) (A) (A) (A) (A) (A) (A) (A) (A) (A)
                 (A) (A) (A) (A) (A) (A) (A) (A) (A) (A) (A) (A)
                 (A) (A) (A) (A) (A) (A) (A) (A) (A) (A) (A) (A)
                 (A) (A) (A) (A) (A) (A) (A) (A) (A) (A) (A) (A)
                 (A) (A) (A) (A) (A) (A) (A) (A) (A) (A) (A) (A)
                 (A) (A) (A) (A) (A) (A) (A) (A) (A) (A) (A) (A)
                 (A) (A) (A) (A) (A) (A) (A) (A) (A) (A) (A) (A)
                 (A) (A) (A) (A) (A) (A) (A) (A) (A) (A) (A) (A)
                 (A) (A) (A) (A) (A) (A) (A) (A) (A) (A) (A) (A)
                 (A) (A) (A) (A) (A) (A) (A) (A)
       Virtual   (A) (A) (A) (A) (A) (A) (A) (A) (A) (A) (A) (A)
                 (A) (A) (A) (A) (A) (A) (A) (A) (A) (A) (A) (A)
                 (A) (A) (A) (A) (A) (A) (A) (A) (A) (A) (A) (A)
                 (A) (A) (A) (A) (A) (A) (A) (A) (A) (A) (A) (A)
                 (A) (A) (A) (A) (A) (A) (A) (A) (A) (A) (A) (A)
                 (A) (A) (A) (A) (A) (A) (A) (A) (A) (A) (A) (A)
                 (A) (A) (A) (A) (A) (A) (A) (A) (A) (A) (A) (A)
                 (A) (A) (A) (A) (A) (A) (A) (A) (A) (A) (A) (A)
                 (A) (A) (A) (A) (A) (A) (A) (A) (A) (A) (A) (A)
                 (A) (A) (A) (A) (A) (A) (A) (A) (A) (A) (A) (A)
                 (A) (A) (A) (A) (A) (A) (A) (A) (A) (A) (A) (A)
                 (A) (A) (A) (A) (A) (A) (A) (A) (A) (A) (A) (A)
                 (A) (A) (A) (A) (A) (A) (A) (A) (A) (A) (A) (A)
                 (A) (A) (A) (A) (A) (A) (A) (A) (A) (A) (A) (A)
                 (A) (A) (A) (A) (A) (A) (A) (A) (A) (A) (A) (A)
                 (A) (A) (A) (A) (A) (A) (A) (A) (A) (A) (A) (A)
                 (A) (A) (A) (A) (A) (A) (A) (A) (A) (A) (A) (A)
                 (A) (A) (A) (A) (A) (A) (A) (A) (A) (A) (A) (A)
                 (A) (A) (A) (A) (A) (A) (A) (A) (A) (A) (A) (A)
                 (A) (A) (A) (A) (A) (A) (A) (A) (A) (A) (A) (A)
                 (A) (A) (A) (A) (A) (A) (A) (A) (A) (A) (A) (A)
                 (A) (A) (A) (A) (A) (A) (A) (A) (A) (A) (A) (A)
                 (A) (A) (A) (A) (A) (A) (A) (A) (A) (A) (A) (A)
                 (A) (A) (A) (A) (A) (A) (A) (A) (A) (A) (A) (A)
                 (A) (A) (A) (A) (A) (A) (A) (A) (A) (A) (A) (A)
                 (A) (A) (A) (A) (A) (A) (A) (A) (A) (A) (A) (A)
                 (A) (A) (A) (A) (A) (A) (A) (A) (A) (A) (A) (A)
                 (A) (A) (A) (A) (A) (A) (A) (A) (A) (A) (A) (A)
                 (A) (A) (A) (A) (A) (A) (A) (A) (A) (A) (A) (A)
                 (A) (A) (A) (A) (A) (A) (A) (A) (A) (A) (A) (A)
                 (A) (A) (A) (A) (A) (A) (A) (A) (A) (A) (A) (A)
                 (A) (A) (A) (A) (A) (A) (A) (A) (A) (A) (A) (A)
                 (A) (A) (A) (A) (A) (A) (A) (A) (A) (A) (A)
 Beta  Orbitals:
       Occupied  (A) (A) (A) (A) (A) (A) (A) (A) (A) (A) (A) (A)
                 (A) (A) (A) (A) (A) (A) (A) (A) (A) (A) (A) (A)
                 (A) (A) (A) (A) (A) (A) (A) (A) (A) (A) (A) (A)
                 (A) (A) (A) (A) (A) (A) (A) (A) (A) (A) (A) (A)
                 (A) (A) (A) (A) (A) (A) (A) (A) (A) (A) (A) (A)
                 (A) (A) (A) (A) (A) (A) (A) (A) (A) (A) (A) (A)
                 (A) (A) (A) (A) (A) (A) (A) (A) (A) (A) (A) (A)
                 (A) (A) (A) (A) (A) (A) (A) (A) (A) (A) (A) (A)
                 (A) (A) (A) (A) (A) (A) (A) (A) (A) (A) (A) (A)
                 (A) (A) (A) (A) (A) (A)
       Virtual   (A) (A) (A) (A) (A) (A) (A) (A) (A) (A) (A) (A)
                 (A) (A) (A) (A) (A) (A) (A) (A) (A) (A) (A) (A)
                 (A) (A) (A) (A) (A) (A) (A) (A) (A) (A) (A) (A)
                 (A) (A) (A) (A) (A) (A) (A) (A) (A) (A) (A) (A)
                 (A) (A) (A) (A) (A) (A) (A) (A) (A) (A) (A) (A)
                 (A) (A) (A) (A) (A) (A) (A) (A) (A) (A) (A) (A)
                 (A) (A) (A) (A) (A) (A) (A) (A) (A) (A) (A) (A)
                 (A) (A) (A) (A) (A) (A) (A) (A) (A) (A) (A) (A)
                 (A) (A) (A) (A) (A) (A) (A) (A) (A) (A) (A) (A)
                 (A) (A) (A) (A) (A) (A) (A) (A) (A) (A) (A) (A)
                 (A) (A) (A) (A) (A) (A) (A) (A) (A) (A) (A) (A)
                 (A) (A) (A) (A) (A) (A) (A) (A) (A) (A) (A) (A)
                 (A) (A) (A) (A) (A) (A) (A) (A) (A) (A) (A) (A)
                 (A) (A) (A) (A) (A) (A) (A) (A) (A) (A) (A) (A)
                 (A) (A) (A) (A) (A) (A) (A) (A) (A) (A) (A) (A)
                 (A) (A) (A) (A) (A) (A) (A) (A) (A) (A) (A) (A)
                 (A) (A) (A) (A) (A) (A) (A) (A) (A) (A) (A) (A)
                 (A) (A) (A) (A) (A) (A) (A) (A) (A) (A) (A) (A)
                 (A) (A) (A) (A) (A) (A) (A) (A) (A) (A) (A) (A)
                 (A) (A) (A) (A) (A) (A) (A) (A) (A) (A) (A) (A)
                 (A) (A) (A) (A) (A) (A) (A) (A) (A) (A) (A) (A)
                 (A) (A) (A) (A) (A) (A) (A) (A) (A) (A) (A) (A)
                 (A) (A) (A) (A) (A) (A) (A) (A) (A) (A) (A) (A)
                 (A) (A) (A) (A) (A) (A) (A) (A) (A) (A) (A) (A)
                 (A) (A) (A) (A) (A) (A) (A) (A) (A) (A) (A) (A)
                 (A) (A) (A) (A) (A) (A) (A) (A) (A) (A) (A) (A)
                 (A) (A) (A) (A) (A) (A) (A) (A) (A) (A) (A) (A)
                 (A) (A) (A) (A) (A) (A) (A) (A) (A) (A) (A) (A)
                 (A) (A) (A) (A) (A) (A) (A) (A) (A) (A) (A) (A)
                 (A) (A) (A) (A) (A) (A) (A) (A) (A) (A) (A) (A)
                 (A) (A) (A) (A) (A) (A) (A) (A) (A) (A) (A) (A)
                 (A) (A) (A) (A) (A) (A) (A) (A) (A) (A) (A) (A)
                 (A) (A) (A) (A) (A) (A) (A) (A) (A) (A) (A) (A)
                 (A)
 The electronic state is 3-A.
 Alpha  occ. eigenvalues -- -300.17982 -36.05915 -31.48164 -31.46720 -31.46584
 Alpha  occ. eigenvalues --  -19.34058 -19.34042 -19.33005 -19.32945 -19.31740
 Alpha  occ. eigenvalues --  -19.31217 -10.42774 -10.42755 -10.41404 -10.41349
 Alpha  occ. eigenvalues --  -10.39823 -10.39709 -10.38985 -10.38932 -10.38688
 Alpha  occ. eigenvalues --  -10.38592 -10.38322 -10.38284 -10.38278 -10.38217
 Alpha  occ. eigenvalues --  -10.37911 -10.37888 -10.37045 -10.36942 -10.34804
 Alpha  occ. eigenvalues --  -10.34789 -10.34599 -10.34588 -10.33861 -10.33424
 Alpha  occ. eigenvalues --   -4.25498  -2.85788  -2.83165  -2.82587  -1.23239
 Alpha  occ. eigenvalues --   -1.23232  -1.20585  -1.19119  -1.19067  -1.17341
 Alpha  occ. eigenvalues --   -1.02641  -1.01587  -1.00568  -0.95312  -0.94298
 Alpha  occ. eigenvalues --   -0.94074  -0.91029  -0.90375  -0.89946  -0.87488
 Alpha  occ. eigenvalues --   -0.87217  -0.85733  -0.79885  -0.79379  -0.79277
 Alpha  occ. eigenvalues --   -0.77620  -0.76843  -0.76318  -0.72260  -0.71761
 Alpha  occ. eigenvalues --   -0.69566  -0.69392  -0.69004  -0.68044  -0.65928
 Alpha  occ. eigenvalues --   -0.64753  -0.64264  -0.63649  -0.62778  -0.62324
 Alpha  occ. eigenvalues --   -0.58621  -0.58492  -0.58392  -0.58150  -0.56765
 Alpha  occ. eigenvalues --   -0.56529  -0.56456  -0.56317  -0.55817  -0.55116
 Alpha  occ. eigenvalues --   -0.54765  -0.53935  -0.53301  -0.53242  -0.53028
 Alpha  occ. eigenvalues --   -0.51955  -0.51566  -0.51483  -0.51371  -0.50554
 Alpha  occ. eigenvalues --   -0.50173  -0.49707  -0.49478  -0.49078  -0.48129
 Alpha  occ. eigenvalues --   -0.47954  -0.47638  -0.47417  -0.46172  -0.44981
 Alpha  occ. eigenvalues --   -0.43449  -0.42737  -0.41761  -0.40887  -0.40126
 Alpha  occ. eigenvalues --   -0.38010  -0.35645  -0.35472  -0.32784  -0.31471
 Alpha  occ. eigenvalues --   -0.28901
 Alpha virt. eigenvalues --   -0.07206  -0.01869  -0.00963   0.02066   0.03001
 Alpha virt. eigenvalues --    0.04120   0.04157   0.04538   0.06152   0.06921
 Alpha virt. eigenvalues --    0.12408   0.12997   0.13078   0.13430   0.13698
 Alpha virt. eigenvalues --    0.14474   0.14837   0.15322   0.15618   0.17402
 Alpha virt. eigenvalues --    0.17531   0.17725   0.18593   0.18851   0.19758
 Alpha virt. eigenvalues --    0.20587   0.21938   0.22011   0.22357   0.22771
 Alpha virt. eigenvalues --    0.23330   0.25407   0.25715   0.26155   0.26896
 Alpha virt. eigenvalues --    0.27538   0.28434   0.28513   0.28851   0.29071
 Alpha virt. eigenvalues --    0.30302   0.31497   0.31993   0.32361   0.33104
 Alpha virt. eigenvalues --    0.33285   0.33709   0.33944   0.35233   0.35540
 Alpha virt. eigenvalues --    0.36024   0.36283   0.36973   0.38760   0.40051
 Alpha virt. eigenvalues --    0.40500   0.41620   0.42158   0.42481   0.43113
 Alpha virt. eigenvalues --    0.43306   0.44122   0.46496   0.46750   0.46929
 Alpha virt. eigenvalues --    0.47129   0.49883   0.49951   0.50761   0.53340
 Alpha virt. eigenvalues --    0.53601   0.54114   0.54138   0.54931   0.55365
 Alpha virt. eigenvalues --    0.55816   0.56222   0.56908   0.57087   0.57856
 Alpha virt. eigenvalues --    0.58348   0.58407   0.58526   0.58770   0.59145
 Alpha virt. eigenvalues --    0.59191   0.59428   0.59820   0.60690   0.61356
 Alpha virt. eigenvalues --    0.62797   0.63125   0.63247   0.63478   0.64171
 Alpha virt. eigenvalues --    0.65362   0.65574   0.66377   0.66412   0.67188
 Alpha virt. eigenvalues --    0.67601   0.67802   0.67853   0.68868   0.69254
 Alpha virt. eigenvalues --    0.70062   0.70906   0.71321   0.71415   0.71506
 Alpha virt. eigenvalues --    0.72024   0.72773   0.73425   0.73949   0.74332
 Alpha virt. eigenvalues --    0.76975   0.77532   0.77750   0.77990   0.78475
 Alpha virt. eigenvalues --    0.78557   0.79985   0.80218   0.80988   0.81178
 Alpha virt. eigenvalues --    0.82166   0.83201   0.84000   0.84099   0.84225
 Alpha virt. eigenvalues --    0.84327   0.86269   0.86651   0.89057   0.89738
[...]
 8,-0.00000012,-0.00000002,0.00000101,-0.00000004,0.00000005,-0.0000026
 4,0.,-0.00000015,0.00000031,-0.00000004,-0.00000032,-0.00000534,0.0000
 0009,0.00000035,-0.00000317,-0.00000008,0.00000008,-0.00000408,0.00000
 035,0.00000040,-0.00000480,0.00004133,0.00023140,-0.00405374,-0.000000
 56,0.00000122,0.00034045,0.00000004,-0.00000018,-0.00000288,0.00000010
 ,-0.00000002,-0.00000229,0.00000001,0.,0.00000812,-0.00000002,0.,0.000
 00128,0.00000380,0.00000350,-0.00021312,0.00000007,-0.00000026,-0.0004
 3847,0.,0.00000001,0.00000293,-0.00000002,0.,0.00000209,-0.00000004,0.
 00000001,0.00000296,-0.00000006,-0.00000009,0.00000460,-0.00003707,-0.
 00017435,0.00611255,0.00146392,0.00223821,0.00000013,-0.00099501,-0.00
 249173,0.00000440,-0.00027111,0.00033113,-0.00000088,-0.00014170,-0.00
 023807,0.00000053,-0.00108057,0.00012956,-0.00000666,-0.00103638,-0.00
 203563,0.00000520,0.00302921,0.00197119,-0.00000085,-0.00333767,-0.002
 14365,0.00000093,0.00332526,0.00159286,-0.00000271,-0.00305870,0.00087
 224,0.00000137,0.00151268,0.00489814,-0.00000262,-0.04560828,0.0156088
 3,0.00004602,0.00075962,-0.00429477,0.00000199,-0.00114871,-0.00075066
 ,0.00000444,-0.00058963,0.00022231,-0.00000080,0.00047210,-0.00025481,
 0.00000104,-0.00018397,0.00033776,0.00000015,0.00026667,-0.00035234,-0
 .00000015,-0.00028501,0.00024556,0.00000021,-0.00004724,-0.00002719,0.
 00000003,-0.00009351,0.00008402,-0.00000011,0.00006194,-0.00023931,-0.
 00000038,0.00008813,-0.00079491,-0.00000039,-0.00003896,0.00066627,0.0
 0000172,0.00062472,0.00027027,0.00000173,0.00035229,0.00157175,-0.0000
 0325,0.00230690,-0.00100372,-0.00002678,-0.31663763,0.20116355,0.00035
 204,0.00007800,-0.00026327,-0.00000037,0.00001463,0.00000201,-0.000000
 02,0.00001409,-0.00000930,-0.00000047,0.00000764,-0.00001732,0.0000000
 2,0.00035724,0.00012278,-0.00000009,0.00014303,-0.00007312,-0.00000076
 ,0.00000136,-0.00000149,-0.00000001,-0.00000111,0.00000147,-0.00000003
 ,-0.00012575,0.00002546,-0.00000061,-0.00027464,-0.00017222,-0.0000013
 7,0.00052337,-0.00004802,-0.00000139,0.35955663,-0.00065645,-0.0010259
 5,0.,0.00064262,0.00109024,-0.00000154,-0.00014341,-0.00036310,0.00000
 052,0.00017594,0.00037923,-0.00000068,0.00026535,-0.00025634,0.0000022
 4,0.00062014,0.00074131,-0.00000132,-0.00165374,-0.00103470,0.00000165
 ,0.00195767,0.00108003,-0.00000155,-0.00222230,-0.00087956,0.00000226,
 0.00289089,0.00033596,-0.00000319,-0.01094078,-0.00198261,0.00001129,-
 0.01979665,0.01729699,0.00002142,-0.00652280,-0.00232200,0.00000702,0.
 00125118,0.00173523,-0.00000224,-0.00059689,0.00001404,0.00000212,0.00
 015977,-0.00005911,-0.00000261,-0.00019675,-0.00012845,-0.00000058,-0.
 00009756,0.00011790,0.00000035,-0.00000967,-0.00020862,-0.00000048,0.0
 0015917,0.00018708,0.00000049,0.00013683,-0.00018455,-0.00000006,0.000
 02822,0.00040612,0.00000051,-0.00005527,0.00071506,0.00000259,0.000028
 57,-0.00070314,-0.00000397,-0.00009538,-0.00000011,-0.00000020,-0.0001
 5543,-0.00056949,0.00000131,0.00038289,0.00502983,0.00002201,0.2485544
 9,-0.22935523,-0.00027626,-0.00004128,0.00020463,0.00000034,-0.0000245
 2,-0.00001150,0.00000003,-0.00001271,0.00000247,0.00000026,-0.00000316
 ,0.00000696,0.00000002,-0.00004794,-0.00000275,0.00000011,-0.00005159,
 0.00003485,0.00000012,0.00000274,0.00000353,0.,-0.00000102,-0.00000305
 ,0.,0.00001341,0.00000030,-0.00000001,0.00010692,0.00005238,0.00000050
 ,0.00296070,-0.00042226,-0.00000242,-0.21704231,0.21010073,-0.00000154
 ,-0.00000236,-0.00001340,0.00000090,0.00000255,0.00003646,0.00000050,-
 0.00000025,0.00000552,0.00000011,0.00000010,-0.00000854,0.00000133,0.0
 0000007,0.00000078,0.00000102,0.00000225,0.00000055,-0.00000343,-0.000
 00178,0.00002402,0.00000387,0.00000246,-0.00003961,-0.00000361,-0.0000
 0194,-0.00013887,0.00000160,-0.00000152,-0.00059581,0.00000557,-0.0000
 0613,0.00019253,0.00004766,-0.00001866,-0.00230768,0.00000199,0.000005
 01,0.00221287,0.00000195,0.00000072,0.00184777,0.00000113,-0.00000051,
 -0.00008482,-0.00000100,0.00000042,-0.00001615,0.00000060,-0.00000047,
 -0.00000177,-0.00000037,0.00000049,0.00000482,0.00000052,-0.00000028,0
 .00000442,-0.00000007,-0.00000009,0.00000148,0.00000007,0.00000001,-0.
 00000900,-0.00000021,0.00000010,-0.00000760,-0.00000011,0.00000073,0.0
 0000848,0.00000024,-0.00000059,0.00001460,-0.00000101,-0.00000036,-0.0
 0000072,-0.00000028,-0.00000179,-0.00000291,-0.00003043,0.00002199,-0.
 00073540,0.00034951,-0.00022062,-0.00690422,-0.00000009,0.00000028,-0.
 00000445,-0.00000004,0.,-0.00000133,-0.00000005,0.00000003,0.00000230,
 0.,0.,0.00000127,-0.00000025,-0.00000015,0.00024064,-0.00000072,-0.000
 00004,-0.00057544,0.,-0.00000003,0.00000345,0.00000001,0.,0.00000174,0
 .00000018,-0.00000004,0.00000173,0.00000035,0.00000018,0.00000332,-0.0
 0000365,0.00000008,-0.00101005,-0.00037200,0.00022012,0.00793088,-0.00
 009733,-0.00000167,-0.00000037,-0.00099043,0.00052496,-0.00000327,0.00
 237535,0.00309295,0.00000416,-0.00132770,-0.00314525,0.00000164,0.0017
 5662,0.00244278,0.00000477,-0.00109163,0.00151595,-0.00001050,0.001004
 21,0.00049773,0.00000134,-0.00085401,-0.00054091,0.00000086,0.00040290
 ,0.00022088,-0.00000050,-0.00030661,0.00002015,0.00000013,0.00009819,0
 .00020701,-0.00000011,-0.00035039,-0.00001182,0.00000036,0.00041062,-0
 .00000373,-0.00000037,-0.00024468,-0.00017375,0.00000053,0.00025714,-0
 .00007390,-0.00000041,-0.00007628,-0.00018155,-0.00000013,0.00108395,0
 .00333200,0.00000453,0.00437620,-0.00494936,-0.00000585,-0.00234676,0.
 01287014,0.00002130,0.00126932,-0.01076450,-0.00001454,-0.00290088,0.0
 0366574,0.00000254,0.00057992,-0.00523338,-0.00000612,0.00012846,-0.00
 517870,0.00000059,-0.00037549,0.00575645,0.00000480,-0.00183355,-0.001
 28119,-0.00000628,-0.00001710,-0.00118365,0.00000274,-0.00005040,0.000
 00110,0.00000011,0.00030980,0.00012524,-0.00000035,-0.47171957,0.13359
 800,-0.00028130,-0.00222143,-0.00048737,-0.00000799,0.00002678,0.00000
 202,0.,0.00000209,-0.00000163,-0.00000044,-0.00000472,-0.00000118,-0.0
 0000003,0.00000449,0.00000505,-0.00000003,0.00011102,-0.00006713,0.000
 00073,0.00010322,-0.00023514,-0.00000060,0.00042602,-0.00011131,0.0000
 0293,0.00011954,0.00023058,0.00000120,-0.00000646,-0.00000657,-0.00000
 002,-0.00003923,0.00003026,0.00000003,0.47348593,0.00022504,0.00026478
 ,0.00000028,0.00052852,-0.00059715,0.00000234,-0.00140879,-0.00159462,
 -0.00000254,0.00070548,0.00170732,-0.00000082,-0.00117549,-0.00132157,
 -0.00000381,0.00053788,-0.00113016,0.00000677,-0.00029449,-0.00011439,
 -0.00000098,0.00019617,0.00011257,-0.00000042,-0.00004909,0.00005480,0
 .00000024,0.00002205,-0.00001907,0.00000005,0.00000191,0.00006108,-0.0
 0000002,0.00021376,-0.00013602,-0.00000030,-0.00028884,-0.00000272,0.0
 0000026,0.00031638,-0.00007554,-0.00000013,-0.00048824,0.00023481,-0.0
 0000036,0.00062152,-0.00053973,0.00000086,0.00016528,-0.00042618,-0.00
 000384,-0.00233091,-0.00506301,-0.00001334,0.04685708,-0.02663665,0.00
 001759,0.00533432,-0.00218730,-0.00000348,0.00137047,-0.00030498,0.000
 00109,0.00003555,0.00224720,0.00000241,-0.00002073,0.00256061,-0.00000
 106,0.00002168,-0.00277386,-0.00000150,0.00112544,0.00076250,0.0000037
 7,0.00005021,0.00086684,-0.00000183,0.00002329,-0.00001496,-0.00000005
 ,-0.00012030,-0.00003516,0.00000017,0.08732874,-0.07184167,-0.00002353
 ,-0.00153202,0.00010333,0.00000015,-0.00001406,-0.00000171,-0.00000004
 ,-0.00000024,-0.00000655,0.00000020,0.00000179,-0.00000130,0.00000002,
 -0.00000245,0.00000076,0.00000003,-0.00008150,0.00006582,0.00000088,-0
 .00008808,0.00025590,0.00000017,-0.00025596,0.00006608,-0.00000177,-0.
 00010244,-0.00015409,-0.00000087,0.00000514,0.00000522,0.00000001,0.00
 001379,-0.00001109,-0.00000002,-0.13594566,0.10420087,0.00000011,0.000
 00027,-0.00000892,-0.00000020,-0.00000025,0.00000769,0.00000061,0.0000
 0109,0.00003585,-0.00000038,-0.00000100,-0.00001570,0.00000022,0.00000
 089,-0.00000058,-0.00000037,0.00000002,-0.00000059,0.00000028,0.000000
 22,0.00001003,-0.00000030,-0.00000012,0.00001583,0.00000018,0.00000019
 ,-0.00000917,-0.00000004,0.00000004,-0.00000838,-0.00000004,0.00000018
 ,0.00000113,0.,-0.00000018,0.00000288,0.00000003,0.00000003,0.00000724
 ,0.00000018,-0.00000023,-0.00000070,-0.00000012,0.00000005,-0.00001624
 ,0.00000054,-0.00000060,-0.00013277,0.00000058,-0.00000130,0.00182181,
 -0.00000225,-0.00001611,0.00249390,0.00007453,-0.00002700,-0.00255226,
 0.00000279,-0.00000470,-0.00004411,0.00000018,0.00000163,-0.00059790,0
 .00000019,-0.00000104,-0.00012986,-0.00000025,-0.00000166,0.00003223,0
 .00000006,0.00000159,-0.00004987,-0.00000054,-0.00000037,0.00000004,0.
 00000021,-0.00000016,-0.00000205,0.00000012,-0.00000009,-0.00000135,0.
 00000009,0.00000013,-0.00000360,-0.00035674,0.00002429,-0.00845057,-0.
 00000163,0.00000104,-0.00142764,0.00000005,-0.00000001,0.00000172,-0.0
 0000003,0.,0.00000219,-0.00000002,-0.00000009,0.00000143,0.,0.00000004
 ,0.00000280,0.00000059,0.00000100,-0.00056310,-0.00000020,-0.00000043,
 0.00026392,0.00000010,0.,0.00000244,-0.00000001,0.00000003,0.00000289,
 0.00000002,0.00000002,0.00000185,-0.00000001,-0.00000005,0.00000188,0.
 00028256,0.00001998,0.01040682,-0.00041717,-0.00056177,-0.00000028,-0.
 00040768,0.00088911,-0.00000290,0.00134828,0.00131986,0.00000246,-0.00
 060039,-0.00151002,0.00000070,0.00126705,0.00116549,0.00000450,-0.0003
 6592,0.00134092,-0.00000703,-0.00010943,-0.00010022,0.00000148,0.00018
 964,0.00015655,0.00000004,-0.00017661,-0.00024668,-0.00000012,0.000187
 79,0.00002803,-0.00000010,-0.00010497,-0.00024977,0.00000011,-0.000205
 94,0.00026565,0.00000035,0.00031571,-0.00000949,-0.00000025,-0.0004681
 3,0.00027617,-0.00000005,0.00080249,-0.00040265,0.00000104,-0.00102693
 ,0.00059230,-0.00000200,0.00205845,-0.00055441,0.00000136,-0.00109404,
 -0.00034458,-0.00000213,0.00029578,0.00416376,0.00000543,-0.04119654,-
 0.01731969,-0.00003681,0.00000132,0.00044130,-0.00005100,-0.00131581,-
 0.00175278,-0.00000363,-0.00000172,-0.00200892,0.00000186,0.00022429,0
 .00193894,0.00000001,-0.00114512,-0.00074475,-0.00000370,-0.00009885,-
 0.00102269,0.00000225,0.00002513,0.00000849,0.00000002,0.00005513,-0.0
 0000704,-0.00000011,0.00151131,0.00061194,0.00000153,-0.33717067,-0.20
 736300,-0.00035367,0.00001138,0.00000180,0.00000007,-0.00000046,0.0000
 0386,-0.00000016,0.00000232,0.00000207,-0.00000005,0.00000156,-0.00000
 440,-0.00000008,-0.00013065,0.00018080,0.00000032,0.00051433,0.0004059
 6,-0.00000418,0.00026095,-0.00006973,0.00000167,0.00013627,0.00016487,
 0.00000097,-0.00000717,0.00000075,-0.00000003,-0.00000504,0.00000375,0
 .00000002,-0.00152463,-0.00140338,-0.00000115,0.37819385,-0.00023450,-
 0.00031991,-0.00000014,-0.00020450,0.00050695,-0.00000142,0.00066814,0
 .00055246,0.00000116,-0.00027256,-0.00066783,0.00000030,0.00064892,0.0
 0051092,0.00000244,-0.00017039,0.00068878,-0.00000348,-0.00008737,-0.0
 0008676,0.00000088,0.00014517,0.00009446,-0.00000016,-0.00012330,-0.00
 017797,-0.00000005,0.00009480,0.00000695,-0.00000003,-0.00002399,-0.00
 017305,0.00000002,-0.00007836,0.00018498,0.00000015,0.00015582,0.00000
 566,-0.00000010,-0.00026052,0.00019367,-0.00000001,0.00046706,-0.00021
 158,0.00000073,-0.00068635,0.00028515,-0.00000113,0.00076969,-0.000739
 45,-0.00000099,-0.00024983,0.00165584,0.00000151,0.00605365,-0.0038077
 9,-0.00000529,0.02513648,0.01488036,0.00003778,0.00633158,0.00168058,-
 0.00000918,-0.00032244,-0.00085896,0.00000133,0.00000527,-0.00085928,0
 .00000164,0.00008563,0.00097655,-0.00000123,-0.00055551,-0.00035264,-0
 .00000193,-0.00005270,-0.00050802,0.00000121,-0.00002962,0.00002797,0.
 00000005,-0.00001412,-0.00002477,0.,-0.00183676,0.00049463,-0.00000066
 ,-0.25781170,-0.22308974,-0.00032040,0.00000575,0.00000247,0.00000003,
 -0.00000354,-0.00000074,-0.00000005,0.00000035,0.00000264,-0.00000003,
 0.00000064,-0.00000352,-0.00000004,0.00018860,-0.00009481,0.00000072,-
 0.00116225,-0.00098268,-0.00000040,0.00012248,-0.00003613,0.00000081,0
 .00006973,0.00008131,0.00000049,-0.00000211,-0.00000585,0.,0.00000422,
 0.00000057,0.,0.00142302,0.00145508,0.00000267,0.22179128,0.20872946,-
 0.00000074,-0.00000090,0.00000060,-0.00000043,0.00000137,0.00000822,0.
 00000154,0.00000110,0.00001364,-0.00000049,-0.00000145,-0.00001636,0.0
 0000157,0.00000120,-0.00000229,-0.00000034,0.00000163,0.00000479,-0.00
 000053,-0.00000032,-0.00000356,0.00000060,0.00000046,-0.00000227,-0.00
 000041,-0.00000061,-0.00000055,0.00000033,0.00000003,-0.00000204,-0.00
 000002,-0.00000059,0.00000101,-0.00000008,0.00000059,0.00000169,0.0000
 0042,0.00000007,-0.00000020,-0.00000076,0.00000059,-0.00000558,0.00000
 141,-0.00000074,-0.00000894,-0.00000241,0.00000116,-0.00003173,0.00000
 200,-0.00000391,0.00021211,-0.00000504,0.00000188,0.00109798,0.0000071
 7,-0.00000767,0.00247857,0.00003267,0.00002661,-0.00157314,-0.00005751
 ,-0.00000919,0.00038859,-0.00000055,-0.00000040,-0.00066264,0.00000001
 ,-0.00000158,-0.00000835,0.00000029,0.00000197,0.00001807,-0.00000153,
 -0.00000085,-0.00000173,0.00000007,-0.00000126,-0.00000396,-0.00000012
 ,0.00000009,-0.00000253,-0.00000019,-0.00000007,-0.00000224,-0.0000040
 8,0.00000228,0.00031882,-0.00040479,-0.00030751,-0.00406895,0.00000005
 ,0.,0.00000076,-0.00000005,-0.00000004,0.00000730,-0.00000001,-0.00000
 005,0.00000166,0.00000001,0.00000001,0.00000234,0.00000030,0.00000077,
 -0.00042018,-0.00001342,-0.00000088,-0.00008086,0.00000031,-0.00000007
 ,0.00000518,0.00000022,0.00000015,0.00000255,0.00000002,-0.00000003,0.
 00000193,0.00000004,-0.00000004,0.00000195,0.00000146,0.00000329,-0.00
 101735,0.00044315,0.00029306,0.00329646,0.00223211,0.00174202,-0.00000
 004,-0.00370789,0.00052274,0.00000053,-0.01591929,-0.00600632,-0.00002
 624,0.00072762,-0.00399494,0.00000383,-0.00124633,0.00090029,-0.000012
 21,-0.00126807,-0.00079804,-0.00000527,0.01948470,0.01602836,0.0000378
 9,-0.04770343,-0.00003787,-0.00001873,-0.01352671,0.00831087,-0.000002
 15,-0.00238940,-0.00189815,0.00000288,0.00032477,0.00058956,0.00000025
 ,0.00001897,-0.00019063,0.00000038,-0.00152190,0.00139074,0.00000251,-
 0.01253389,-0.00838700,-0.00000101,-0.04201651,-0.01128767,-0.00004173
 ,0.01604106,-0.00885996,-0.00016925,-0.00244399,-0.00059100,-0.0000079
 4,0.00060619,0.00015447,-0.00000107,-0.00048511,-0.00085379,-0.0000029
 9,-0.00021666,-0.00008093,-0.00000028,0.00094929,0.00308024,0.00000502
 ,-0.01661201,0.00601336,-0.00001197,-0.02209957,-0.06004392,-0.0001439
 9,-0.03488605,0.05506380,-0.00016106,-0.00023708,-0.00073838,0.0000012
 5,0.00043863,0.00076702,0.00000029,-0.00096961,0.00020197,0.00000100,-
 0.00062991,-0.00012086,0.00000101,0.00004616,0.00060770,0.00000149,-0.
 00068094,0.00071886,0.00000106,-0.00000767,-0.00006328,0.00000072,0.00
 014589,0.00011176,0.00000159,0.00014671,-0.00003329,-0.00000026,0.0001
 2402,0.00004723,-0.00000046,-0.00001313,0.00003149,0.00000021,0.000127
 39,-0.00012763,0.00000002,0.00013928,0.00003253,0.00000069,-0.00019744
 ,-0.00001181,-0.00000038,0.00008366,-0.00013143,0.00000005,0.00004045,
 -0.00000389,-0.00000029,0.00004755,-0.00009880,0.00000005,0.00017083,0
 .00001412,-0.00000012,0.17941731,-0.00235886,0.00000584,0.00000201,0.0
 0256752,-0.02028552,0.00002430,-0.00832684,-0.00728375,-0.00001547,0.0
 0044389,-0.00001245,0.00000044,-0.00121871,-0.00049500,-0.00000580,0.0
 0068409,-0.00175184,0.00001737,-0.02402242,-0.05783065,0.00004792,0.04
 105572,0.00883273,0.00002687,0.00821461,-0.00629404,0.00000249,0.00073
 437,0.00175817,-0.00000238,0.00027811,0.00004300,-0.00000225,-0.000729
 80,-0.00100524,0.00000337,-0.00096463,0.00165099,0.00000197,-0.0081605
 3,-0.00853330,0.00000003,-0.04760238,-0.00061502,-0.00008013,0.0233050
 0,-0.05554245,0.00010227,-0.00055366,-0.01891702,-0.00000568,0.0025500
 1,-0.00007299,0.00000101,-0.00018896,-0.00076690,-0.00000411,0.0001004
 9,0.00055137,0.00000050,0.00040375,-0.00139942,-0.00000267,0.00603042,
 -0.00362384,-0.00000329,-0.01841079,-0.00936218,-0.00007658,0.01691217
 ,-0.00527153,-0.00027853,0.00043656,0.00017258,0.00000178,-0.00024585,
 0.00035806,-0.00000292,0.00048177,-0.00000438,0.00000023,0.00027795,0.
 00042864,-0.00000076,0.00030230,-0.00019264,0.00000031,0.00042735,-0.0
 0030744,0.00000028,0.00000006,0.00018087,-0.00000291,0.00005569,0.0000
 1164,0.00000006,-0.00010476,0.00000483,0.00000002,0.00012547,0.0000461
 0,-0.00000051,-0.00004343,0.00017486,0.00000087,-0.00005046,0.00002703
 ,0.00000027,-0.00009928,0.00006833,-0.00000080,-0.00009963,-0.00015583
 ,-0.00000103,-0.00005685,0.00006825,-0.00000014,-0.00011955,-0.0000118
 2,0.00000005,0.00001731,-0.00003610,-0.00000003,-0.00007770,-0.0000159
 6,-0.00000017,0.00803046,0.18540398,-0.00000066,0.00000032,0.00083302,
 -0.00000816,0.00001792,0.00228396,-0.00002099,-0.00000697,0.00214188,-
 0.00000813,-0.00001198,0.00110307,-0.00000209,0.00000763,0.00025009,0.
 00000078,0.00000402,0.00016956,0.00000304,0.00006253,-0.00903485,-0.00
 002824,0.00000884,-0.01134932,0.00000313,-0.00000253,0.00190266,-0.000
 00686,-0.00000184,0.00179752,0.00000635,0.00000176,0.00031209,0.000008
 94,-0.00000157,0.00040260,-0.00001041,0.00000034,0.00160887,0.00000427
 ,0.00000288,0.00143103,-0.00007826,-0.00005504,-0.00725997,0.00010325,
 -0.00023529,-0.00841605,0.00000079,-0.00001876,0.00130033,-0.00000069,
 0.00000335,0.00152886,0.00000594,0.00000007,0.00041145,-0.00000648,-0.
 00000509,0.00030387,-0.00000351,0.00000544,0.00191796,-0.00002194,-0.0
 0000093,0.00173063,-0.00004101,-0.00011911,-0.00557782,-0.00043907,0.0
 0010096,-0.00805398,-0.00000109,-0.00000234,-0.00023146,0.00000153,-0.
 00000364,-0.00013708,-0.00000516,0.00000184,-0.00039487,-0.00000655,-0
 .00000275,-0.00022240,0.00000037,-0.00000093,-0.00021292,0.00000207,0.
 00000076,-0.00040166,0.00000070,-0.00000120,-0.00011074,0.00000165,-0.
 00000024,-0.00014794,-0.00000012,0.00000042,-0.00013874,-0.00000040,-0
 .00000037,-0.00013734,0.,0.00000017,-0.00013003,0.00000025,0.00000024,
 -0.00014569,0.00000065,0.00000003,0.00002650,0.00000039,0.00000015,-0.
 00000483,0.00000031,-0.00000069,0.00005184,0.00000071,-0.00000010,-0.0
 0008571,-0.00000013,0.00000018,-0.00008388,0.00000009,-0.00000026,0.00
 005125,0.00054474,0.00025176,0.03071825\\-0.00000506,-0.00002120,0.000
 00087,0.00000450,0.00001047,-0.00000106,0.00000339,-0.00002111,0.00000
 217,0.00001225,-0.00000870,-0.00000031,0.00001497,-0.00001432,-0.00000
 522,0.00000404,0.00002133,0.00000348,-0.00002943,0.00001569,-0.0000048
 4,0.00000234,0.00004616,0.00000207,0.00001034,-0.00001735,-0.00000068,
 -0.00000249,0.00001952,0.00000123,0.00000625,-0.00000586,0.00000201,-0
 .00000555,0.00000026,0.00000261,0.00000296,0.00000990,0.00000216,-0.00
 000772,0.00001403,0.00000087,0.00000995,-0.00001845,-0.00000203,-0.000
 00634,0.00005300,0.00000146,0.00000500,0.00000295,0.00000041,0.0000059
 9,-0.00001752,-0.00000004,0.00000850,0.00001602,0.00000182,-0.00002739
 ,-0.00000178,-0.00000443,-0.00001221,-0.00000992,-0.00000075,-0.000004
 55,0.00000753,-0.00000337,0.00000965,-0.00001381,-0.00000323,-0.000034
 31,0.00000720,-0.00000160,-0.00000808,0.00000096,-0.00000411,0.0000107
 2,-0.00002100,-0.00000493,-0.00000148,0.00000908,0.00000124,0.00000879
 ,0.00001219,0.00000192,-0.00000470,-0.00000564,-0.00000058,0.00000475,
 -0.00002679,0.00000205,0.00000692,-0.00000078,-0.00000046,0.00000868,-
 0.00000397,-0.00000176,0.00000667,0.00000592,0.00000104,-0.00000138,0.
 00000217,0.00000175,-0.00000817,0.00000156,0.00000029,-0.00000057,-0.0
 0000351,-0.00000078,-0.00000467,0.00000585,-0.00000228,0.00000703,0.00
 000007,0.00000311,-0.00000051,-0.00000545,0.00000290,-0.00001184,0.000
 01196,0.00000274,-0.00000770,0.00000149,-0.00000118,0.00000457,-0.0000
 0504,-0.00000224,0.00002588,-0.00005310,0.00000766\\\@


 RESEARCH IS WHAT I AM DOING WHEN I DON'T KNOW WHAT I AM DOING.
     -- WERNER VON BRAUN
 Job cpu time:       0 days 10 hours  0 minutes 31.8 seconds.
 Elapsed time:       0 days  0 hours 21 minutes 30.1 seconds.
 File lengths (MBytes):  RWF=   2756 Int=      0 D2E=      0 Chk=     82 Scr=      2
 Normal termination of Gaussian 16 at Sat Jan 15 06:45:35 2022.
