 Entering Gaussian System, Link 0=g16
 Input=bihhtc_co_freq.gjf
 Output=bihhtc_co_freq.log
 Initial command:
 /curc/sw/gaussian/16/g16/l1.exe "/rc_scratch/xuwa0145/Gau-38138.inp" -scrdir="/rc_scratch/xuwa0145/"
 Entering Link 1 = /curc/sw/gaussian/16/g16/l1.exe PID=     38140.
  
 Copyright (c) 1988,1990,1992,1993,1995,1998,2003,2009,2016,
            Gaussian, Inc.  All Rights Reserved.
  
 This is part of the Gaussian(R) 16 program.  It is based on
 the Gaussian(R) 09 system (copyright 2009, Gaussian, Inc.),
 the Gaussian(R) 03 system (copyright 2003, Gaussian, Inc.),
 the Gaussian(R) 98 system (copyright 1998, Gaussian, Inc.),
 the Gaussian(R) 94 system (copyright 1995, Gaussian, Inc.),
 the Gaussian 92(TM) system (copyright 1992, Gaussian, Inc.),
 the Gaussian 90(TM) system (copyright 1990, Gaussian, Inc.),
 the Gaussian 88(TM) system (copyright 1988, Gaussian, Inc.),
 the Gaussian 86(TM) system (copyright 1986, Carnegie Mellon
 University), and the Gaussian 82(TM) system (copyright 1983,
 Carnegie Mellon University). Gaussian is a federally registered
 trademark of Gaussian, Inc.
  
 This software contains proprietary and confidential information,
 including trade secrets, belonging to Gaussian, Inc.
  
 This software is provided under written license and may be
 used, copied, transmitted, or stored only in accord with that
 written license.
  
 The following legend is applicable only to US Government
 contracts under FAR:
  
                    RESTRICTED RIGHTS LEGEND
  
 Use, reproduction and disclosure by the US Government is
 subject to restrictions as set forth in subparagraphs (a)
 and (c) of the Commercial Computer Software - Restricted
 Rights clause in FAR 52.227-19.
  
 Gaussian, Inc.
 340 Quinnipiac St., Bldg. 40, Wallingford CT 06492
  
  
 ---------------------------------------------------------------
 Warning -- This program may not be used in any manner that
 competes with the business of Gaussian, Inc. or will provide
 assistance to any competitor of Gaussian, Inc.  The licensee
 of this program is prohibited from giving any competitor of
 Gaussian, Inc. access to this program.  By using this program,
 the user acknowledges that Gaussian, Inc. is engaged in the
 business of creating and licensing software in the field of
 computational chemistry and represents and warrants to the
 licensee that it is not a competitor of Gaussian, Inc. and that
 it will not use this program in any manner prohibited above.
 ---------------------------------------------------------------
  

 Cite this work as:
 Gaussian 16, Revision A.03,
 M. J. Frisch, G. W. Trucks, H. B. Schlegel, G. E. Scuseria, 
 M. A. Robb, J. R. Cheeseman, G. Scalmani, V. Barone, 
 G. A. Petersson, H. Nakatsuji, X. Li, M. Caricato, A. V. Marenich, 
 J. Bloino, B. G. Janesko, R. Gomperts, B. Mennucci, H. P. Hratchian, 
 J. V. Ortiz, A. F. Izmaylov, J. L. Sonnenberg, D. Williams-Young, 
 F. Ding, F. Lipparini, F. Egidi, J. Goings, B. Peng, A. Petrone, 
 T. Henderson, D. Ranasinghe, V. G. Zakrzewski, J. Gao, N. Rega, 
 G. Zheng, W. Liang, M. Hada, M. Ehara, K. Toyota, R. Fukuda, 
 J. Hasegawa, M. Ishida, T. Nakajima, Y. Honda, O. Kitao, H. Nakai, 
 T. Vreven, K. Throssell, J. A. Montgomery, Jr., J. E. Peralta, 
 F. Ogliaro, M. J. Bearpark, J. J. Heyd, E. N. Brothers, K. N. Kudin, 
 V. N. Staroverov, T. A. Keith, R. Kobayashi, J. Normand, 
 K. Raghavachari, A. P. Rendell, J. C. Burant, S. S. Iyengar, 
 J. Tomasi, M. Cossi, J. M. Millam, M. Klene, C. Adamo, R. Cammi, 
 J. W. Ochterski, R. L. Martin, K. Morokuma, O. Farkas, 
 J. B. Foresman, and D. J. Fox, Gaussian, Inc., Wallingford CT, 2016.
 
 ******************************************
 Gaussian 16:  ES64L-G16RevA.03 25-Dec-2016
                 4-Apr-2022 
 ******************************************
 %chk=ketone.chk
 %mem=10GB
 %nprocshared=28
 Will use up to   28 processors via shared memory.
 -----------------------------------------------------
 # freq uwb97xd def2svp scrf=(smd, solvent=2-propanol)
 -----------------------------------------------------
 1/10=4,30=1,38=1/1,3;
 2/12=2,17=6,18=5,40=1/2;
 3/5=43,7=101,11=2,25=1,30=1,70=32201,71=2,72=73,74=-58,116=2,140=1/1,2,3;
 4//1;
 5/5=2,38=5,53=73,98=1/2;
 8/6=4,10=90,11=11/1;
 11/6=1,8=1,9=11,15=111,16=1/1,2,10;
 10/6=1/2;
 6/7=2,8=2,9=2,10=2,28=1/1;
 7/8=1,10=1,25=1/1,2,3,16;
 1/10=4,30=1/3;
 99//99;
 -------------
 Molecule Name
 -------------
 Symbolic Z-matrix:
 Charge =  2 Multiplicity = 4
 C                     2.16388  -2.94583  -2.14878 
 C                     1.40073  -1.77656  -2.03648 
 C                     2.05043  -0.51578  -1.98163 
 C                     3.45157  -0.45067  -2.02141 
 C                     4.19587  -1.61389  -2.12058 
 C                     3.5486   -2.87397  -2.1861 
 C                    -0.02237  -1.84816  -1.84154 
 C                    -1.22391  -1.93365  -1.6185 
 C                    -2.63638  -2.0424   -1.43218 
 C                    -3.2366   -3.29658  -1.22689 
 C                    -4.60709  -3.39385  -1.0408 
 C                    -5.40759  -2.22911  -1.05418 
 C                    -4.81647  -0.98728  -1.24947 
 C                    -3.43298  -0.87573  -1.43563 
 C                    -2.81695   0.40579  -1.57327 
 C                    -2.27244   1.48916  -1.63986 
 C                    -1.63352   2.76599  -1.65572 
 C                    -2.40251   3.93688  -1.62493 
 C                    -1.79481   5.18334  -1.55482 
 C                    -0.38543   5.27267  -1.5106 
 C                     0.38782   4.12292  -1.55439 
 C                    -0.22259   2.85936  -1.6292 
 C                     1.26888   0.67115  -1.78143 
 C                     0.57999   1.67844  -1.67064 
 O                     5.53618  -1.66186  -2.13746 
 O                     4.27004  -3.99576  -2.25443 
 O                    -5.27071  -4.54401  -0.81594 
 O                    -6.73046  -2.31153  -0.86952 
 O                    -2.54542   6.29049  -1.50887 
 O                     0.10186   6.52203  -1.39455 
 H                     1.67973  -3.9222   -2.18362 
 H                     3.95751   0.51455  -1.96152 
 H                    -2.62915  -4.2039   -1.21047 
 H                    -5.44742  -0.09739  -1.24308 
 H                    -3.49234   3.88352  -1.62815 
 H                     1.47552   4.20625  -1.52136 
 H                     5.92601  -0.78322  -2.02845 
 H                     5.21454  -3.77884  -2.22546 
 H                    -4.67611  -5.30602  -0.83296 
 H                    -6.98582  -3.23909  -0.75318 
 H                    -1.97069   7.06816  -1.44278 
 H                     1.06816   6.52833  -1.37848 
 Co                    0.10114  -0.34956  -0.06342 
 C                     3.82645  -2.78684   1.08889 
 C                     2.99449  -1.69516   1.38282 
 C                     3.54382  -0.40095   1.49596 
 C                     4.92969  -0.22787   1.36738 
 C                     5.74891  -1.31269   1.09041 
 C                     5.1931   -2.60308   0.93606 
 C                     1.58709  -1.87129   1.55988 
 C                     0.39742  -2.05404   1.76451 
 C                    -1.00522  -2.27433   1.94946 
 C                    -1.53516  -3.57013   2.03494 
 C                    -2.91002  -3.75424   2.0754 
 C                    -3.78301  -2.64037   2.04483 
 C                    -3.26527  -1.35711   1.96128 
 C                    -1.88081  -1.16589   1.9119 
 C                    -1.33142   0.14546   1.72072 
 C                    -0.88847   1.28141   1.62521 
 C                    -0.34786   2.60687   1.64046 
 C                    -1.20684   3.71504   1.61084 
 C                    -0.69407   5.00254   1.66688 
 C                     0.70205   5.19959   1.75374 
 C                     1.55918   4.10854   1.77243 
 C                     1.05021   2.8028    1.71757 
 C                     2.67934   0.72437   1.65512 
 C                     1.93737   1.68605   1.70191 
 O                     7.08232  -1.24274   0.93053 
 O                     5.98377  -3.64553   0.63628 
 O                    -3.51717  -4.9518    2.11105 
 O                    -5.10897  -2.82281   2.05484 
 O                    -1.52067   6.05742   1.61224 
 O                     1.09654   6.48359   1.79778 
 H                     3.41259  -3.78896   0.96637 
 H                     5.36916   0.76543   1.47695 
 H                    -0.8736   -4.43927   2.04286 
 H                    -3.94497  -0.50666   1.90042 
 H                    -2.2865    3.57995   1.54088 
 H                     2.6372    4.27543   1.82405 
 H                     7.41876  -0.35235   1.10184 
 H                     6.90255  -3.34172   0.58272 
 H                    -2.8755   -5.67554   2.13762 
 H                    -5.30577  -3.77152   2.06157 
 H                    -1.00059   6.87441   1.65457 
 H                     2.05517   6.56302   1.89867 
 

 GradGradGradGradGradGradGradGradGradGradGradGradGradGradGradGradGradGrad
 Berny optimization.
 Initialization pass.
 Trust Radius=3.00D-01 FncErr=1.00D-07 GrdErr=1.00D-07 EigMax=2.50D+02 EigMin=1.00D-04
 Number of steps in this run=      2 maximum allowed number of steps=      2.
 GradGradGradGradGradGradGradGradGradGradGradGradGradGradGradGradGradGrad

 Stoichiometry    C48H24CoO12(2+,4)
 Framework group  C1[X(C48H24CoO12)]
 Deg. of freedom   249
 Full point group                 C1      NOp   1
 Largest Abelian subgroup         C1      NOp   1
 Largest concise Abelian subgroup C1      NOp   1
                         Standard orientation:                         
 ---------------------------------------------------------------------
 Center     Atomic      Atomic             Coordinates (Angstroms)
 Number     Number       Type             X           Y           Z
 ---------------------------------------------------------------------
      1          6           0       -2.163879   -2.945831    2.148779
      2          6           0       -1.400735   -1.776557    2.036477
      3          6           0       -2.050427   -0.515779    1.981634
      4          6           0       -3.451567   -0.450668    2.021413
      5          6           0       -4.195868   -1.613891    2.120581
      6          6           0       -3.548599   -2.873968    2.186101
      7          6           0        0.022368   -1.848155    1.841536
      8          6           0        1.223905   -1.933654    1.618502
      9          6           0        2.636378   -2.042404    1.432177
     10          6           0        3.236602   -3.296576    1.226892
     11          6           0        4.607093   -3.393856    1.040797
     12          6           0        5.407590   -2.229108    1.054181
     13          6           0        4.816473   -0.987277    1.249471
     14          6           0        3.432979   -0.875727    1.435626
     15          6           0        2.816947    0.405785    1.573265
     16          6           0        2.272437    1.489158    1.639855
     17          6           0        1.633518    2.765988    1.655715
     18          6           0        2.402516    3.936876    1.624927
     19          6           0        1.794808    5.183335    1.554818
     20          6           0        0.385433    5.272671    1.510597
     21          6           0       -0.387819    4.122922    1.554389
     22          6           0        0.222592    2.859358    1.629198
     23          6           0       -1.268877    0.671149    1.781432
     24          6           0       -0.579984    1.678444    1.670639
     25          8           0       -5.536181   -1.661854    2.137459
     26          8           0       -4.270040   -3.995760    2.254431
     27          8           0        5.270708   -4.544007    0.815939
     28          8           0        6.730458   -2.311530    0.869522
     29          8           0        2.545426    6.290487    1.508868
     30          8           0       -0.101854    6.522028    1.394545
     31          1           0       -1.679732   -3.922197    2.183615
     32          1           0       -3.957511    0.514549    1.961524
     33          1           0        2.629147   -4.203900    1.210465
     34          1           0        5.447422   -0.097390    1.243076
     35          1           0        3.492345    3.883517    1.628146
     36          1           0       -1.475514    4.206254    1.521357
     37          1           0       -5.926008   -0.783218    2.028451
     38          1           0       -5.214539   -3.778839    2.225460
     39          1           0        4.676104   -5.306025    0.832962
     40          1           0        6.985818   -3.239094    0.753182
     41          1           0        1.970688    7.068160    1.442779
     42          1           0       -1.068158    6.528334    1.378477
     43         27           0       -0.101137   -0.349560    0.063415
     44          6           0       -3.826446   -2.786839   -1.088891
     45          6           0       -2.994489   -1.695156   -1.382817
     46          6           0       -3.543815   -0.400953   -1.495958
     47          6           0       -4.929691   -0.227863   -1.367379
     48          6           0       -5.748911   -1.312688   -1.090407
     49          6           0       -5.193105   -2.603074   -0.936055
     50          6           0       -1.587090   -1.871284   -1.559875
     51          6           0       -0.397416   -2.054036   -1.764514
     52          6           0        1.005220   -2.274328   -1.949459
     53          6           0        1.535156   -3.570130   -2.034942
     54          6           0        2.910015   -3.754238   -2.075398
     55          6           0        3.783010   -2.640374   -2.044833
     56          6           0        3.265272   -1.357108   -1.961277
     57          6           0        1.880808   -1.165894   -1.911903
     58          6           0        1.331424    0.145460   -1.720722
     59          6           0        0.888473    1.281411   -1.625212
     60          6           0        0.347861    2.606868   -1.640461
     61          6           0        1.206839    3.715040   -1.610837
     62          6           0        0.694075    5.002544   -1.666877
     63          6           0       -0.702050    5.199594   -1.753743
     64          6           0       -1.559173    4.108544   -1.772433
     65          6           0       -1.050204    2.802800   -1.717571
     66          6           0       -2.679339    0.724367   -1.655124
     67          6           0       -1.937369    1.686053   -1.701913
     68          8           0       -7.082324   -1.242735   -0.930525
     69          8           0       -5.983774   -3.645523   -0.636283
     70          8           0        3.517166   -4.951804   -2.111046
     71          8           0        5.108970   -2.822807   -2.054841
     72          8           0        1.520671    6.057417   -1.612244
     73          8           0       -1.096536    6.483590   -1.797775
     74          1           0       -3.412590   -3.788956   -0.966372
     75          1           0       -5.369163    0.765432   -1.476945
     76          1           0        0.873595   -4.439272   -2.042862
     77          1           0        3.944974   -0.506657   -1.900417
     78          1           0        2.286500    3.579949   -1.540879
     79          1           0       -2.637193    4.275433   -1.824050
     80          1           0       -7.418759   -0.352347   -1.101844
     81          1           0       -6.902550   -3.341716   -0.582718
     82          1           0        2.875500   -5.675539   -2.137618
     83          1           0        5.305769   -3.771526   -2.061566
     84          1           0        1.000593    6.874415   -1.654574
     85          1           0       -2.055168    6.563024   -1.898665
 ---------------------------------------------------------------------
 Rotational constants (GHZ):           0.0468531           0.0454473           0.0288062
 Standard basis: def2SVP (5D, 7F)
 There are  1056 symmetry adapted cartesian basis functions of A   symmetry.
 There are   991 symmetry adapted basis functions of A   symmetry.
   991 basis functions,  1749 primitive gaussians,  1056 cartesian basis functions
   218 alpha electrons      215 beta electrons
       nuclear repulsion energy      9853.7772147418 Hartrees.
 NAtoms=   85 NActive=   85 NUniq=   85 SFac= 1.00D+00 NAtFMM=   60 NAOKFM=T Big=T
 Integral buffers will be    131072 words long.
 Raffenetti 2 integral format.
 Two-electron integral symmetry is turned on.
 Nuclear repulsion after empirical dispersion term =     9853.6673741552 Hartrees.
 Force inversion solution in PCM.
 ------------------------------------------------------------------------------
 Polarizable Continuum Model (PCM)
 =================================
 Model                : PCM.
 Atomic radii         : SMD-Coulomb.
 Polarization charges : Total charges.
 Charge compensation  : None.
 Solution method      : Matrix inversion.
 Cavity type          : VdW (van der Waals Surface) (Alpha=1.000).
 Cavity algorithm     : GePol (No added spheres)
                        Default sphere list used, NSphG=   85.
                        Lebedev-Laikov grids with approx.  5.0 points / Ang**2.
                        Smoothing algorithm: York/Karplus (Gamma=1.0000).
                        Polarization charges: spherical gaussians, with
                                              point-specific exponents (IZeta= 3).
                        Self-potential: point-specific (ISelfS= 7).
                        Self-field    : sphere-specific E.n sum rule (ISelfD= 2).
 1st derivatives      : Analytical E(r).r(x)/FMM algorithm (CHGder, D1EAlg=3).
                        Cavity 1st derivative terms included.
 2nd derivatives      : Analytical E(r).r(xy)/FMM algorithm (CHGder, D2EAlg=3).
                        Cavity 2nd derivative terms included.
 Solvent              : 2-Propanol, Eps=  19.264000 Eps(inf)=   1.897782
 ------------------------------------------------------------------------------
 ------------------------------------------------------------------------------
 Atomic radii for non-electrostatic terms: SMD-CDS.
 ------------------------------------------------------------------------------
 Nuclear repulsion after PCM non-electrostatic terms =     9853.6689414283 Hartrees.
 One-electron integrals computed using PRISM.
   1 Symmetry operations used in ECPInt.
 ECPInt:  NShTT=   98346 NPrTT=  378907 LenC2=   74695 LenP2D=  177098.
 LDataN:  DoStor=T MaxTD1= 6 Len=  172
 Number of processors reduced to  25 by ecpmxn.
 NBasis=   991 RedAO= T EigKep=  1.19D-04  NBF=   991
 NBsUse=   991 1.00D-06 EigRej= -1.00D+00 NBFU=   991
 ExpMin= 3.59D-02 ExpMax= 6.59D+04 ExpMxC= 9.90D+03 IAcc=3 IRadAn=         5 AccDes= 0.00D+00
 Harris functional with IExCor= 4639 and IRadAn=       5 diagonalized for initial guess.
 HarFok:  IExCor= 4639 AccDes= 0.00D+00 IRadAn=         5 IDoV= 1 UseB2=F ITyADJ=14
 ICtDFT=  3500011 ScaDFX=  1.000000  1.000000  1.000000  1.000000
 FoFCou: FMM=F IPFlag=           0 FMFlag=      100000 FMFlg1=        2001
         NFxFlg=           0 DoJE=T BraDBF=F KetDBF=T FulRan=T
         wScrn=  0.000000 ICntrl=       500 IOpCl=  0 I1Cent=   200000004 NGrid=           0
         NMat0=    1 NMatS0=      1 NMatT0=    0 NMatD0=    1 NMtDS0=    0 NMtDT0=    0
 Petite list used in FoFCou.
 Initial guess <Sx>= 0.0000 <Sy>= 0.0000 <Sz>= 1.5000 <S**2>= 3.7500 S= 1.5000
 Requested convergence on RMS density matrix=1.00D-08 within 128 cycles.
 Requested convergence on MAX density matrix=1.00D-06.
 Requested convergence on             energy=1.00D-06.
 No special actions if energy rises.
 Inv3:  Mode=1 IEnd=   127335675.
 Iteration    1 A*A^-1 deviation from unit magnitude is 4.88D-15 for   4737.
 Iteration    1 A*A^-1 deviation from orthogonality  is 3.77D-15 for   3057   2168.
 Iteration    1 A^-1*A deviation from unit magnitude is 4.66D-15 for   4737.
 Iteration    1 A^-1*A deviation from orthogonality  is 2.60D-15 for   4406    596.
 EnCoef did   100 forward-backward iterations
 EnCoef did   100 forward-backward iterations
 EnCoef did   100 forward-backward iterations
 EnCoef did    32 forward-backward iterations
 Restarting incremental Fock formation.
 Restarting incremental Fock formation.
 Restarting incremental Fock formation.
 Error on total polarization charges =  0.05724
 SCF Done:  E(UwB97XD) =  -4125.53153333     A.U. after   69 cycles
            NFock= 69  Conv=0.12D-08     -V/T= 2.0072
 <Sx>= 0.0000 <Sy>= 0.0000 <Sz>= 1.5000 <S**2>= 3.7577 S= 1.5019
 <L.S>=  0.00000000000    
 SMD-CDS (non-electrostatic) energy       (kcal/mol) =       0.98
 (included in total energy above)
 Annihilation of the first spin contaminant:
 S**2 before annihilation     3.7577,   after     3.7500
 DoSCS=F DFT=T ScalE2(SS,OS)=  1.000000  1.000000
 Range of M.O.s used for correlation:     1   991
 NBasis=   991 NAE=   218 NBE=   215 NFC=     0 NFV=     0
 NROrb=    991 NOA=   218 NOB=   215 NVA=   773 NVB=   776

 **** Warning!!: The largest alpha MO coefficient is  0.12403905D+02


 **** Warning!!: The largest beta MO coefficient is  0.12466946D+02

 PrsmSu:  requested number of processors reduced to:   8 ShMem   1 Linda.
   1 Symmetry operations used in ECPInt.
 ECPInt:  NShTT=   98346 NPrTT=  378907 LenC2=   74695 LenP2D=  177098.
 LDataN:  DoStor=T MaxTD1= 7 Len=  274
 Number of processors reduced to   3 by ecpmxn.
 Symmetrizing basis deriv contribution to polar:
 IMax=3 JMax=2 DiffMx= 0.00D+00
 G2DrvN: will do    11 centers at a time, making    8 passes.
 Calling FoFCou, ICntrl=  3107 FMM=T I1Cent=   0 AccDes= 0.00D+00.
 Calling FoFCou, ICntrl=  3107 FMM=T I1Cent=   0 AccDes= 0.00D+00.
 Calling FoFCou, ICntrl=  3107 FMM=T I1Cent=   0 AccDes= 0.00D+00.
 Calling FoFCou, ICntrl=  3107 FMM=T I1Cent=   0 AccDes= 0.00D+00.
 Calling FoFCou, ICntrl=  3107 FMM=T I1Cent=   0 AccDes= 0.00D+00.
 Calling FoFCou, ICntrl=  3107 FMM=T I1Cent=   0 AccDes= 0.00D+00.
 Calling FoFCou, ICntrl=  3107 FMM=T I1Cent=   0 AccDes= 0.00D+00.
 Calling FoFCou, ICntrl=  3107 FMM=T I1Cent=   0 AccDes= 0.00D+00.
 NEqPCM:  Using equilibrium solvation (IEInf=0, Eps=  19.2640, EpsInf=   1.8978)
 G2PCM: DoFxE=T DoFxN=T DoGrad=T DoDP/DQ/DG/TGxP=FFFF NFrqRd=   0 IEInf=0 SqF1=F DoCFld=F IF1Alg=4.
 CoulSu:  requested number of processors reduced to:  26 ShMem   1 Linda.
 CoulSu:  requested number of processors reduced to:  27 ShMem   1 Linda.
 CoulSu:  requested number of processors reduced to:  26 ShMem   1 Linda.
 CoulSu:  requested number of processors reduced to:  27 ShMem   1 Linda.
 CoulSu:  requested number of processors reduced to:  26 ShMem   1 Linda.
 CoulSu:  requested number of processors reduced to:  27 ShMem   1 Linda.
 End of G2Drv F.D. properties file   721 does not exist.
 End of G2Drv F.D. properties file   722 does not exist.
 End of G2Drv F.D. properties file   788 does not exist.
          IDoAtm=11111111111111111111111111111111111111111111111111
          IDoAtm=11111111111111111111111111111111111
 NEqPCM:  Using equilibrium solvation (IEInf=0, Eps=  19.2640, EpsInf=   1.8978)
          Differentiating once with respect to electric field.
                with respect to dipole field.
          Differentiating once with respect to nuclear coordinates.
 CalDSu exits because no D1Ps are significant.
          There are   258 degrees of freedom in the 1st order CPHF.  IDoFFX=6 NUNeed=     3.
    258 vectors produced by pass  0 Test12= 3.35D-13 1.00D-09 XBig12= 1.21D+03 8.48D+00.
 AX will form    18 AO Fock derivatives at one time.
    258 vectors produced by pass  1 Test12= 3.35D-13 1.00D-09 XBig12= 8.61D+01 7.84D-01.
    258 vectors produced by pass  2 Test12= 3.35D-13 1.00D-09 XBig12= 3.60D+00 2.42D-01.
    258 vectors produced by pass  3 Test12= 3.35D-13 1.00D-09 XBig12= 1.02D-01 3.13D-02.
    258 vectors produced by pass  4 Test12= 3.35D-13 1.00D-09 XBig12= 1.98D-03 4.11D-03.
    257 vectors produced by pass  5 Test12= 3.35D-13 1.00D-09 XBig12= 3.07D-05 5.11D-04.
    257 vectors produced by pass  6 Test12= 3.35D-13 1.00D-09 XBig12= 3.71D-07 4.84D-05.
    227 vectors produced by pass  7 Test12= 3.35D-13 1.00D-09 XBig12= 3.76D-09 5.45D-06.
    143 vectors produced by pass  8 Test12= 3.35D-13 1.00D-09 XBig12= 3.87D-11 5.29D-07.
    108 vectors produced by pass  9 Test12= 3.35D-13 1.00D-09 XBig12= 4.65D-13 3.69D-08.
     86 vectors produced by pass 10 Test12= 3.35D-13 1.00D-09 XBig12= 1.63D-14 4.86D-09.
     63 vectors produced by pass 11 Test12= 3.35D-13 1.00D-09 XBig12= 8.02D-15 2.69D-09.
     45 vectors produced by pass 12 Test12= 3.35D-13 1.00D-09 XBig12= 7.37D-15 3.18D-09.
     40 vectors produced by pass 13 Test12= 3.35D-13 1.00D-09 XBig12= 7.73D-15 2.51D-09.
     38 vectors produced by pass 14 Test12= 3.35D-13 1.00D-09 XBig12= 7.53D-15 2.63D-09.
     37 vectors produced by pass 15 Test12= 3.35D-13 1.00D-09 XBig12= 5.61D-15 2.92D-09.
     33 vectors produced by pass 16 Test12= 3.35D-13 1.00D-09 XBig12= 6.50D-15 2.89D-09.
     32 vectors produced by pass 17 Test12= 3.35D-13 1.00D-09 XBig12= 6.20D-15 4.02D-09.
     32 vectors produced by pass 18 Test12= 3.35D-13 1.00D-09 XBig12= 8.58D-15 3.50D-09.
     30 vectors produced by pass 19 Test12= 3.35D-13 1.00D-09 XBig12= 7.92D-15 4.32D-09.
     30 vectors produced by pass 20 Test12= 3.35D-13 1.00D-09 XBig12= 8.04D-15 3.28D-09.
     29 vectors produced by pass 21 Test12= 3.35D-13 1.00D-09 XBig12= 6.35D-15 2.24D-09.
     27 vectors produced by pass 22 Test12= 3.35D-13 1.00D-09 XBig12= 8.01D-15 3.52D-09.
     27 vectors produced by pass 23 Test12= 3.35D-13 1.00D-09 XBig12= 7.31D-15 2.43D-09.
     18 vectors produced by pass 24 Test12= 3.35D-13 1.00D-09 XBig12= 4.92D-15 2.23D-09.
     17 vectors produced by pass 25 Test12= 3.35D-13 1.00D-09 XBig12= 5.47D-15 2.81D-09.
     17 vectors produced by pass 26 Test12= 3.35D-13 1.00D-09 XBig12= 5.84D-15 2.32D-09.
     17 vectors produced by pass 27 Test12= 3.35D-13 1.00D-09 XBig12= 7.12D-15 2.81D-09.
     17 vectors produced by pass 28 Test12= 3.35D-13 1.00D-09 XBig12= 5.34D-15 1.98D-09.
     17 vectors produced by pass 29 Test12= 3.35D-13 1.00D-09 XBig12= 5.42D-15 2.08D-09.
     15 vectors produced by pass 30 Test12= 3.35D-13 1.00D-09 XBig12= 4.01D-15 1.71D-09.
     15 vectors produced by pass 31 Test12= 3.35D-13 1.00D-09 XBig12= 5.46D-15 2.13D-09.
     14 vectors produced by pass 32 Test12= 3.35D-13 1.00D-09 XBig12= 3.85D-15 1.84D-09.
     14 vectors produced by pass 33 Test12= 3.35D-13 1.00D-09 XBig12= 4.92D-15 1.90D-09.
     14 vectors produced by pass 34 Test12= 3.35D-13 1.00D-09 XBig12= 7.12D-15 2.43D-09.
     14 vectors produced by pass 35 Test12= 3.35D-13 1.00D-09 XBig12= 3.97D-15 1.71D-09.
     14 vectors produced by pass 36 Test12= 3.35D-13 1.00D-09 XBig12= 3.99D-15 1.82D-09.
     14 vectors produced by pass 37 Test12= 3.35D-13 1.00D-09 XBig12= 5.04D-15 1.90D-09.
     14 vectors produced by pass 38 Test12= 3.35D-13 1.00D-09 XBig12= 4.17D-15 2.18D-09.
     13 vectors produced by pass 39 Test12= 3.35D-13 1.00D-09 XBig12= 3.99D-15 2.08D-09.
     13 vectors produced by pass 40 Test12= 3.35D-13 1.00D-09 XBig12= 4.03D-15 1.59D-09.
     13 vectors produced by pass 41 Test12= 3.35D-13 1.00D-09 XBig12= 4.88D-15 2.12D-09.
     13 vectors produced by pass 42 Test12= 3.35D-13 1.00D-09 XBig12= 5.75D-15 2.09D-09.
     13 vectors produced by pass 43 Test12= 3.35D-13 1.00D-09 XBig12= 5.65D-15 2.03D-09.
      9 vectors produced by pass 44 Test12= 3.35D-13 1.00D-09 XBig12= 3.59D-15 1.42D-09.
      9 vectors produced by pass 45 Test12= 3.35D-13 1.00D-09 XBig12= 5.44D-15 1.78D-09.
      9 vectors produced by pass 46 Test12= 3.35D-13 1.00D-09 XBig12= 5.47D-15 1.91D-09.
      9 vectors produced by pass 47 Test12= 3.35D-13 1.00D-09 XBig12= 5.39D-15 2.09D-09.
      9 vectors produced by pass 48 Test12= 3.35D-13 1.00D-09 XBig12= 5.41D-15 2.20D-09.
      9 vectors produced by pass 49 Test12= 3.35D-13 1.00D-09 XBig12= 5.04D-15 1.72D-09.
      9 vectors produced by pass 50 Test12= 3.35D-13 1.00D-09 XBig12= 4.73D-15 1.80D-09.
      9 vectors produced by pass 51 Test12= 3.35D-13 1.00D-09 XBig12= 5.49D-15 1.82D-09.
      9 vectors produced by pass 52 Test12= 3.35D-13 1.00D-09 XBig12= 6.59D-15 2.25D-09.
      9 vectors produced by pass 53 Test12= 3.35D-13 1.00D-09 XBig12= 5.07D-15 1.95D-09.
      9 vectors produced by pass 54 Test12= 3.35D-13 1.00D-09 XBig12= 5.37D-15 1.90D-09.
      9 vectors produced by pass 55 Test12= 3.35D-13 1.00D-09 XBig12= 6.91D-15 2.06D-09.
      9 vectors produced by pass 56 Test12= 3.35D-13 1.00D-09 XBig12= 4.56D-15 1.70D-09.
      9 vectors produced by pass 57 Test12= 3.35D-13 1.00D-09 XBig12= 4.66D-15 1.67D-09.
      8 vectors produced by pass 58 Test12= 3.35D-13 1.00D-09 XBig12= 3.35D-15 1.62D-09.
      8 vectors produced by pass 59 Test12= 3.35D-13 1.00D-09 XBig12= 4.37D-15 1.82D-09.
      8 vectors produced by pass 60 Test12= 3.35D-13 1.00D-09 XBig12= 4.80D-15 1.86D-09.
      8 vectors produced by pass 61 Test12= 3.35D-13 1.00D-09 XBig12= 3.62D-15 1.52D-09.
      8 vectors produced by pass 62 Test12= 3.35D-13 1.00D-09 XBig12= 4.72D-15 1.61D-09.
      8 vectors produced by pass 63 Test12= 3.35D-13 1.00D-09 XBig12= 6.33D-15 2.11D-09.
      8 vectors produced by pass 64 Test12= 3.35D-13 1.00D-09 XBig12= 4.43D-15 1.61D-09.
      8 vectors produced by pass 65 Test12= 3.35D-13 1.00D-09 XBig12= 5.36D-15 1.82D-09.
      7 vectors produced by pass 66 Test12= 3.35D-13 1.00D-09 XBig12= 4.05D-15 1.87D-09.
      7 vectors produced by pass 67 Test12= 3.35D-13 1.00D-09 XBig12= 4.18D-15 1.67D-09.
      7 vectors produced by pass 68 Test12= 3.35D-13 1.00D-09 XBig12= 5.18D-15 1.88D-09.
      7 vectors produced by pass 69 Test12= 3.35D-13 1.00D-09 XBig12= 3.57D-15 2.15D-09.
      7 vectors produced by pass 70 Test12= 3.35D-13 1.00D-09 XBig12= 3.51D-15 1.68D-09.
      7 vectors produced by pass 71 Test12= 3.35D-13 1.00D-09 XBig12= 2.66D-15 1.27D-09.
      7 vectors produced by pass 72 Test12= 3.35D-13 1.00D-09 XBig12= 3.43D-15 1.82D-09.
      7 vectors produced by pass 73 Test12= 3.35D-13 1.00D-09 XBig12= 5.72D-15 1.90D-09.
      7 vectors produced by pass 74 Test12= 3.35D-13 1.00D-09 XBig12= 3.53D-15 1.57D-09.
      7 vectors produced by pass 75 Test12= 3.35D-13 1.00D-09 XBig12= 3.66D-15 1.53D-09.
      7 vectors produced by pass 76 Test12= 3.35D-13 1.00D-09 XBig12= 4.96D-15 1.85D-09.
      6 vectors produced by pass 77 Test12= 3.35D-13 1.00D-09 XBig12= 2.94D-15 1.35D-09.
      6 vectors produced by pass 78 Test12= 3.35D-13 1.00D-09 XBig12= 4.09D-15 1.68D-09.
      6 vectors produced by pass 79 Test12= 3.35D-13 1.00D-09 XBig12= 4.75D-15 2.05D-09.
      6 vectors produced by pass 80 Test12= 3.35D-13 1.00D-09 XBig12= 5.19D-15 2.16D-09.
      6 vectors produced by pass 81 Test12= 3.35D-13 1.00D-09 XBig12= 4.72D-15 1.87D-09.
      6 vectors produced by pass 82 Test12= 3.35D-13 1.00D-09 XBig12= 4.44D-15 1.66D-09.
      6 vectors produced by pass 83 Test12= 3.35D-13 1.00D-09 XBig12= 4.76D-15 1.64D-09.
      6 vectors produced by pass 84 Test12= 3.35D-13 1.00D-09 XBig12= 5.39D-15 2.00D-09.
      6 vectors produced by pass 85 Test12= 3.35D-13 1.00D-09 XBig12= 6.03D-15 1.75D-09.
      5 vectors produced by pass 86 Test12= 3.35D-13 1.00D-09 XBig12= 4.06D-15 1.36D-09.
      5 vectors produced by pass 87 Test12= 3.35D-13 1.00D-09 XBig12= 3.75D-15 1.58D-09.
      5 vectors produced by pass 88 Test12= 3.35D-13 1.00D-09 XBig12= 5.02D-15 1.77D-09.
      5 vectors produced by pass 89 Test12= 3.35D-13 1.00D-09 XBig12= 3.78D-15 1.54D-09.
      5 vectors produced by pass 90 Test12= 3.35D-13 1.00D-09 XBig12= 3.98D-15 1.86D-09.
      5 vectors produced by pass 91 Test12= 3.35D-13 1.00D-09 XBig12= 5.29D-15 2.09D-09.
      5 vectors produced by pass 92 Test12= 3.35D-13 1.00D-09 XBig12= 3.67D-15 1.55D-09.
      5 vectors produced by pass 93 Test12= 3.35D-13 1.00D-09 XBig12= 3.59D-15 1.63D-09.
      5 vectors produced by pass 94 Test12= 3.35D-13 1.00D-09 XBig12= 4.15D-15 1.61D-09.
      5 vectors produced by pass 95 Test12= 3.35D-13 1.00D-09 XBig12= 2.69D-15 1.37D-09.
      5 vectors produced by pass 96 Test12= 3.35D-13 1.00D-09 XBig12= 3.84D-15 1.56D-09.
      5 vectors produced by pass 97 Test12= 3.35D-13 1.00D-09 XBig12= 4.13D-15 1.44D-09.
      5 vectors produced by pass 98 Test12= 3.35D-13 1.00D-09 XBig12= 5.23D-15 1.97D-09.
      5 vectors produced by pass 99 Test12= 3.35D-13 1.00D-09 XBig12= 4.12D-15 1.95D-09.
      5 vectors produced by pass100 Test12= 3.35D-13 1.00D-09 XBig12= 4.12D-15 1.53D-09.
      5 vectors produced by pass101 Test12= 3.35D-13 1.00D-09 XBig12= 4.85D-15 1.65D-09.
      5 vectors produced by pass102 Test12= 3.35D-13 1.00D-09 XBig12= 3.55D-15 1.45D-09.
      5 vectors produced by pass103 Test12= 3.35D-13 1.00D-09 XBig12= 4.28D-15 1.52D-09.
      5 vectors produced by pass104 Test12= 3.35D-13 1.00D-09 XBig12= 7.02D-15 1.92D-09.
      5 vectors produced by pass105 Test12= 3.35D-13 1.00D-09 XBig12= 3.74D-15 1.48D-09.
      4 vectors produced by pass106 Test12= 3.35D-13 1.00D-09 XBig12= 3.75D-15 1.43D-09.
      4 vectors produced by pass107 Test12= 3.35D-13 1.00D-09 XBig12= 2.79D-15 1.29D-09.
      4 vectors produced by pass108 Test12= 3.35D-13 1.00D-09 XBig12= 5.14D-15 2.17D-09.
      4 vectors produced by pass109 Test12= 3.35D-13 1.00D-09 XBig12= 3.64D-15 1.45D-09.
      4 vectors produced by pass110 Test12= 3.35D-13 1.00D-09 XBig12= 4.34D-15 1.64D-09.
      4 vectors produced by pass111 Test12= 3.35D-13 1.00D-09 XBig12= 4.07D-15 1.97D-09.
      4 vectors produced by pass112 Test12= 3.35D-13 1.00D-09 XBig12= 5.31D-15 2.03D-09.
      4 vectors produced by pass113 Test12= 3.35D-13 1.00D-09 XBig12= 3.83D-15 1.45D-09.
      4 vectors produced by pass114 Test12= 3.35D-13 1.00D-09 XBig12= 3.83D-15 1.60D-09.
      4 vectors produced by pass115 Test12= 3.35D-13 1.00D-09 XBig12= 4.43D-15 1.68D-09.
      4 vectors produced by pass116 Test12= 3.35D-13 1.00D-09 XBig12= 5.89D-15 1.93D-09.
      4 vectors produced by pass117 Test12= 3.35D-13 1.00D-09 XBig12= 4.94D-15 1.75D-09.
      4 vectors produced by pass118 Test12= 3.35D-13 1.00D-09 XBig12= 4.63D-15 1.74D-09.
      4 vectors produced by pass119 Test12= 3.35D-13 1.00D-09 XBig12= 4.63D-15 1.44D-09.
      4 vectors produced by pass120 Test12= 3.35D-13 1.00D-09 XBig12= 4.40D-15 1.54D-09.
      4 vectors produced by pass121 Test12= 3.35D-13 1.00D-09 XBig12= 4.66D-15 1.48D-09.
      4 vectors produced by pass122 Test12= 3.35D-13 1.00D-09 XBig12= 5.25D-15 1.77D-09.
      4 vectors produced by pass123 Test12= 3.35D-13 1.00D-09 XBig12= 4.40D-15 1.53D-09.
      4 vectors produced by pass124 Test12= 3.35D-13 1.00D-09 XBig12= 4.18D-15 1.54D-09.
      4 vectors produced by pass125 Test12= 3.35D-13 1.00D-09 XBig12= 4.66D-15 1.76D-09.
      4 vectors produced by pass126 Test12= 3.35D-13 1.00D-09 XBig12= 3.60D-15 1.48D-09.
      4 vectors produced by pass127 Test12= 3.35D-13 1.00D-09 XBig12= 3.53D-15 1.60D-09.
      4 vectors produced by pass128 Test12= 3.35D-13 1.00D-09 XBig12= 3.28D-15 1.60D-09.
      4 vectors produced by pass129 Test12= 3.35D-13 1.00D-09 XBig12= 4.27D-15 1.66D-09.
      4 vectors produced by pass130 Test12= 3.35D-13 1.00D-09 XBig12= 4.20D-15 1.55D-09.
      4 vectors produced by pass131 Test12= 3.35D-13 1.00D-09 XBig12= 3.69D-15 1.60D-09.
      4 vectors produced by pass132 Test12= 3.35D-13 1.00D-09 XBig12= 3.92D-15 1.60D-09.
      4 vectors produced by pass133 Test12= 3.35D-13 1.00D-09 XBig12= 4.43D-15 1.52D-09.
      4 vectors produced by pass134 Test12= 3.35D-13 1.00D-09 XBig12= 4.44D-15 1.70D-09.
      4 vectors produced by pass135 Test12= 3.35D-13 1.00D-09 XBig12= 4.59D-15 1.71D-09.
      4 vectors produced by pass136 Test12= 3.35D-13 1.00D-09 XBig12= 3.67D-15 1.54D-09.
      3 vectors produced by pass137 Test12= 3.35D-13 1.00D-09 XBig12= 2.93D-15 1.62D-09.
      3 vectors produced by pass138 Test12= 3.35D-13 1.00D-09 XBig12= 2.96D-15 1.48D-09.
      3 vectors produced by pass139 Test12= 3.35D-13 1.00D-09 XBig12= 2.15D-15 1.21D-09.
      3 vectors produced by pass140 Test12= 3.35D-13 1.00D-09 XBig12= 2.79D-15 1.38D-09.
      2 vectors produced by pass141 Test12= 3.35D-13 1.00D-09 XBig12= 2.22D-15 1.25D-09.
      1 vectors produced by pass142 Test12= 3.35D-13 1.00D-09 XBig12= 9.54D-16 1.13D-09.
 InvSVY:  IOpt=1 It=  1 EMax= 1.60D-14
 Solved reduced A of dimension  3687 with   258 vectors.
 Isotropic polarizability for W=    0.000000      987.45 Bohr**3.
 End of Minotr F.D. properties file   721 does not exist.
 End of Minotr F.D. properties file   722 does not exist.
 End of Minotr F.D. properties file   788 does not exist.

 **********************************************************************

            Population analysis using the SCF density.

 **********************************************************************

 Orbital symmetries:
 Alpha Orbitals:
       Occupied  (A) (A) (A) (A) (A) (A) (A) (A) (A) (A) (A) (A)
                 (A) (A) (A) (A) (A) (A) (A) (A) (A) (A) (A) (A)
                 (A) (A) (A) (A) (A) (A) (A) (A) (A) (A) (A) (A)
                 (A) (A) (A) (A) (A) (A) (A) (A) (A) (A) (A) (A)
                 (A) (A) (A) (A) (A) (A) (A) (A) (A) (A) (A) (A)
                 (A) (A) (A) (A) (A) (A) (A) (A) (A) (A) (A) (A)
                 (A) (A) (A) (A) (A) (A) (A) (A) (A) (A) (A) (A)
                 (A) (A) (A) (A) (A) (A) (A) (A) (A) (A) (A) (A)
                 (A) (A) (A) (A) (A) (A) (A) (A) (A) (A) (A) (A)
                 (A) (A) (A) (A) (A) (A) (A) (A) (A) (A) (A) (A)
                 (A) (A) (A) (A) (A) (A) (A) (A) (A) (A) (A) (A)
                 (A) (A) (A) (A) (A) (A) (A) (A) (A) (A) (A) (A)
                 (A) (A) (A) (A) (A) (A) (A) (A) (A) (A) (A) (A)
                 (A) (A) (A) (A) (A) (A) (A) (A) (A) (A) (A) (A)
                 (A) (A) (A) (A) (A) (A) (A) (A) (A) (A) (A) (A)
                 (A) (A) (A) (A) (A) (A) (A) (A) (A) (A) (A) (A)
                 (A) (A) (A) (A) (A) (A) (A) (A) (A) (A) (A) (A)
                 (A) (A) (A) (A) (A) (A) (A) (A) (A) (A) (A) (A)
                 (A) (A)
       Virtual   (A) (A) (A) (A) (A) (A) (A) (A) (A) (A) (A) (A)
                 (A) (A) (A) (A) (A) (A) (A) (A) (A) (A) (A) (A)
                 (A) (A) (A) (A) (A) (A) (A) (A) (A) (A) (A) (A)
                 (A) (A) (A) (A) (A) (A) (A) (A) (A) (A) (A) (A)
                 (A) (A) (A) (A) (A) (A) (A) (A) (A) (A) (A) (A)
                 (A) (A) (A) (A) (A) (A) (A) (A) (A) (A) (A) (A)
                 (A) (A) (A) (A) (A) (A) (A) (A) (A) (A) (A) (A)
                 (A) (A) (A) (A) (A) (A) (A) (A) (A) (A) (A) (A)
                 (A) (A) (A) (A) (A) (A) (A) (A) (A) (A) (A) (A)
                 (A) (A) (A) (A) (A) (A) (A) (A) (A) (A) (A) (A)
                 (A) (A) (A) (A) (A) (A) (A) (A) (A) (A) (A) (A)
                 (A) (A) (A) (A) (A) (A) (A) (A) (A) (A) (A) (A)
                 (A) (A) (A) (A) (A) (A) (A) (A) (A) (A) (A) (A)
                 (A) (A) (A) (A) (A) (A) (A) (A) (A) (A) (A) (A)
                 (A) (A) (A) (A) (A) (A) (A) (A) (A) (A) (A) (A)
                 (A) (A) (A) (A) (A) (A) (A) (A) (A) (A) (A) (A)
                 (A) (A) (A) (A) (A) (A) (A) (A) (A) (A) (A) (A)
                 (A) (A) (A) (A) (A) (A) (A) (A) (A) (A) (A) (A)
                 (A) (A) (A) (A) (A) (A) (A) (A) (A) (A) (A) (A)
                 (A) (A) (A) (A) (A) (A) (A) (A) (A) (A) (A) (A)
                 (A) (A) (A) (A) (A) (A) (A) (A) (A) (A) (A) (A)
                 (A) (A) (A) (A) (A) (A) (A) (A) (A) (A) (A) (A)
                 (A) (A) (A) (A) (A) (A) (A) (A) (A) (A) (A) (A)
                 (A) (A) (A) (A) (A) (A) (A) (A) (A) (A) (A) (A)
                 (A) (A) (A) (A) (A) (A) (A) (A) (A) (A) (A) (A)
                 (A) (A) (A) (A) (A) (A) (A) (A) (A) (A) (A) (A)
                 (A) (A) (A) (A) (A) (A) (A) (A) (A) (A) (A) (A)
                 (A) (A) (A) (A) (A) (A) (A) (A) (A) (A) (A) (A)
                 (A) (A) (A) (A) (A) (A) (A) (A) (A) (A) (A) (A)
                 (A) (A) (A) (A) (A) (A) (A) (A) (A) (A) (A) (A)
                 (A) (A) (A) (A) (A) (A) (A) (A) (A) (A) (A) (A)
                 (A) (A) (A) (A) (A) (A) (A) (A) (A) (A) (A) (A)
                 (A) (A) (A) (A) (A) (A) (A) (A) (A) (A) (A) (A)
                 (A) (A) (A) (A) (A) (A) (A) (A) (A) (A) (A) (A)
                 (A) (A) (A) (A) (A) (A) (A) (A) (A) (A) (A) (A)
                 (A) (A) (A) (A) (A) (A) (A) (A) (A) (A) (A) (A)
                 (A) (A) (A) (A) (A) (A) (A) (A) (A) (A) (A) (A)
                 (A) (A) (A) (A) (A) (A) (A) (A) (A) (A) (A) (A)
                 (A) (A) (A) (A) (A) (A) (A) (A) (A) (A) (A) (A)
                 (A) (A) (A) (A) (A) (A) (A) (A) (A) (A) (A) (A)
                 (A) (A) (A) (A) (A) (A) (A) (A) (A) (A) (A) (A)
                 (A) (A) (A) (A) (A) (A) (A) (A) (A) (A) (A) (A)
                 (A) (A) (A) (A) (A) (A) (A) (A) (A) (A) (A) (A)
                 (A) (A) (A) (A) (A) (A) (A) (A) (A) (A) (A) (A)
                 (A) (A) (A) (A) (A) (A) (A) (A) (A) (A) (A) (A)
                 (A) (A) (A) (A) (A) (A) (A) (A) (A) (A) (A) (A)
                 (A) (A) (A) (A) (A) (A) (A) (A) (A) (A) (A) (A)
                 (A) (A) (A) (A) (A) (A) (A) (A) (A) (A) (A) (A)
                 (A) (A) (A) (A) (A) (A) (A) (A) (A) (A) (A) (A)
                 (A) (A) (A) (A) (A) (A) (A) (A) (A) (A) (A) (A)
                 (A) (A) (A) (A) (A) (A) (A) (A) (A) (A) (A) (A)
                 (A) (A) (A) (A) (A) (A) (A) (A) (A) (A) (A) (A)
                 (A) (A) (A) (A) (A) (A) (A) (A) (A) (A) (A) (A)
                 (A) (A) (A) (A) (A) (A) (A) (A) (A) (A) (A) (A)
                 (A) (A) (A) (A) (A) (A) (A) (A) (A) (A) (A) (A)
                 (A) (A) (A) (A) (A) (A) (A) (A) (A) (A) (A) (A)
                 (A) (A) (A) (A) (A) (A) (A) (A) (A) (A) (A) (A)
                 (A) (A) (A) (A) (A) (A) (A) (A) (A) (A) (A) (A)
                 (A) (A) (A) (A) (A) (A) (A) (A) (A) (A) (A) (A)
                 (A) (A) (A) (A) (A) (A) (A) (A) (A) (A) (A) (A)
                 (A) (A) (A) (A) (A) (A) (A) (A) (A) (A) (A) (A)
                 (A) (A) (A) (A) (A) (A) (A) (A) (A) (A) (A) (A)
                 (A) (A) (A) (A) (A) (A) (A) (A) (A) (A) (A) (A)
                 (A) (A) (A) (A) (A) (A) (A) (A) (A) (A) (A) (A)
                 (A) (A) (A) (A) (A)
 Beta  Orbitals:
       Occupied  (A) (A) (A) (A) (A) (A) (A) (A) (A) (A) (A) (A)
                 (A) (A) (A) (A) (A) (A) (A) (A) (A) (A) (A) (A)
                 (A) (A) (A) (A) (A) (A) (A) (A) (A) (A) (A) (A)
                 (A) (A) (A) (A) (A) (A) (A) (A) (A) (A) (A) (A)
                 (A) (A) (A) (A) (A) (A) (A) (A) (A) (A) (A) (A)
                 (A) (A) (A) (A) (A) (A) (A) (A) (A) (A) (A) (A)
                 (A) (A) (A) (A) (A) (A) (A) (A) (A) (A) (A) (A)
                 (A) (A) (A) (A) (A) (A) (A) (A) (A) (A) (A) (A)
                 (A) (A) (A) (A) (A) (A) (A) (A) (A) (A) (A) (A)
                 (A) (A) (A) (A) (A) (A) (A) (A) (A) (A) (A) (A)
                 (A) (A) (A) (A) (A) (A) (A) (A) (A) (A) (A) (A)
                 (A) (A) (A) (A) (A) (A) (A) (A) (A) (A) (A) (A)
                 (A) (A) (A) (A) (A) (A) (A) (A) (A) (A) (A) (A)
                 (A) (A) (A) (A) (A) (A) (A) (A) (A) (A) (A) (A)
                 (A) (A) (A) (A) (A) (A) (A) (A) (A) (A) (A) (A)
                 (A) (A) (A) (A) (A) (A) (A) (A) (A) (A) (A) (A)
                 (A) (A) (A) (A) (A) (A) (A) (A) (A) (A) (A) (A)
                 (A) (A) (A) (A) (A) (A) (A) (A) (A) (A) (A)
       Virtual   (A) (A) (A) (A) (A) (A) (A) (A) (A) (A) (A) (A)
                 (A) (A) (A) (A) (A) (A) (A) (A) (A) (A) (A) (A)
                 (A) (A) (A) (A) (A) (A) (A) (A) (A) (A) (A) (A)
                 (A) (A) (A) (A) (A) (A) (A) (A) (A) (A) (A) (A)
                 (A) (A) (A) (A) (A) (A) (A) (A) (A) (A) (A) (A)
                 (A) (A) (A) (A) (A) (A) (A) (A) (A) (A) (A) (A)
                 (A) (A) (A) (A) (A) (A) (A) (A) (A) (A) (A) (A)
                 (A) (A) (A) (A) (A) (A) (A) (A) (A) (A) (A) (A)
                 (A) (A) (A) (A) (A) (A) (A) (A) (A) (A) (A) (A)
                 (A) (A) (A) (A) (A) (A) (A) (A) (A) (A) (A) (A)
                 (A) (A) (A) (A) (A) (A) (A) (A) (A) (A) (A) (A)
                 (A) (A) (A) (A) (A) (A) (A) (A) (A) (A) (A) (A)
                 (A) (A) (A) (A) (A) (A) (A) (A) (A) (A) (A) (A)
                 (A) (A) (A) (A) (A) (A) (A) (A) (A) (A) (A) (A)
                 (A) (A) (A) (A) (A) (A) (A) (A) (A) (A) (A) (A)
                 (A) (A) (A) (A) (A) (A) (A) (A) (A) (A) (A) (A)
                 (A) (A) (A) (A) (A) (A) (A) (A) (A) (A) (A) (A)
                 (A) (A) (A) (A) (A) (A) (A) (A) (A) (A) (A) (A)
                 (A) (A) (A) (A) (A) (A) (A) (A) (A) (A) (A) (A)
                 (A) (A) (A) (A) (A) (A) (A) (A) (A) (A) (A) (A)
                 (A) (A) (A) (A) (A) (A) (A) (A) (A) (A) (A) (A)
                 (A) (A) (A) (A) (A) (A) (A) (A) (A) (A) (A) (A)
                 (A) (A) (A) (A) (A) (A) (A) (A) (A) (A) (A) (A)
                 (A) (A) (A) (A) (A) (A) (A) (A) (A) (A) (A) (A)
                 (A) (A) (A) (A) (A) (A) (A) (A) (A) (A) (A) (A)
                 (A) (A) (A) (A) (A) (A) (A) (A) (A) (A) (A) (A)
                 (A) (A) (A) (A) (A) (A) (A) (A) (A) (A) (A) (A)
                 (A) (A) (A) (A) (A) (A) (A) (A) (A) (A) (A) (A)
                 (A) (A) (A) (A) (A) (A) (A) (A) (A) (A) (A) (A)
                 (A) (A) (A) (A) (A) (A) (A) (A) (A) (A) (A) (A)
                 (A) (A) (A) (A) (A) (A) (A) (A) (A) (A) (A) (A)
                 (A) (A) (A) (A) (A) (A) (A) (A) (A) (A) (A) (A)
                 (A) (A) (A) (A) (A) (A) (A) (A) (A) (A) (A) (A)
                 (A) (A) (A) (A) (A) (A) (A) (A) (A) (A) (A) (A)
                 (A) (A) (A) (A) (A) (A) (A) (A) (A) (A) (A) (A)
                 (A) (A) (A) (A) (A) (A) (A) (A) (A) (A) (A) (A)
                 (A) (A) (A) (A) (A) (A) (A) (A) (A) (A) (A) (A)
                 (A) (A) (A) (A) (A) (A) (A) (A) (A) (A) (A) (A)
                 (A) (A) (A) (A) (A) (A) (A) (A) (A) (A) (A) (A)
                 (A) (A) (A) (A) (A) (A) (A) (A) (A) (A) (A) (A)
                 (A) (A) (A) (A) (A) (A) (A) (A) (A) (A) (A) (A)
                 (A) (A) (A) (A) (A) (A) (A) (A) (A) (A) (A) (A)
                 (A) (A) (A) (A) (A) (A) (A) (A) (A) (A) (A) (A)
                 (A) (A) (A) (A) (A) (A) (A) (A) (A) (A) (A) (A)
                 (A) (A) (A) (A) (A) (A) (A) (A) (A) (A) (A) (A)
                 (A) (A) (A) (A) (A) (A) (A) (A) (A) (A) (A) (A)
                 (A) (A) (A) (A) (A) (A) (A) (A) (A) (A) (A) (A)
                 (A) (A) (A) (A) (A) (A) (A) (A) (A) (A) (A) (A)
                 (A) (A) (A) (A) (A) (A) (A) (A) (A) (A) (A) (A)
                 (A) (A) (A) (A) (A) (A) (A) (A) (A) (A) (A) (A)
                 (A) (A) (A) (A) (A) (A) (A) (A) (A) (A) (A) (A)
                 (A) (A) (A) (A) (A) (A) (A) (A) (A) (A) (A) (A)
                 (A) (A) (A) (A) (A) (A) (A) (A) (A) (A) (A) (A)
                 (A) (A) (A) (A) (A) (A) (A) (A) (A) (A) (A) (A)
                 (A) (A) (A) (A) (A) (A) (A) (A) (A) (A) (A) (A)
                 (A) (A) (A) (A) (A) (A) (A) (A) (A) (A) (A) (A)
                 (A) (A) (A) (A) (A) (A) (A) (A) (A) (A) (A) (A)
                 (A) (A) (A) (A) (A) (A) (A) (A) (A) (A) (A) (A)
                 (A) (A) (A) (A) (A) (A) (A) (A) (A) (A) (A) (A)
                 (A) (A) (A) (A) (A) (A) (A) (A) (A) (A) (A) (A)
                 (A) (A) (A) (A) (A) (A) (A) (A) (A) (A) (A) (A)
                 (A) (A) (A) (A) (A) (A) (A) (A) (A) (A) (A) (A)
                 (A) (A) (A) (A) (A) (A) (A) (A) (A) (A) (A) (A)
                 (A) (A) (A) (A) (A) (A) (A) (A) (A) (A) (A) (A)
                 (A) (A) (A) (A) (A) (A) (A) (A)
 The electronic state is 4-A.
 Alpha  occ. eigenvalues -- -277.87627 -33.14391 -28.77507 -28.77295 -28.77082
 Alpha  occ. eigenvalues --  -19.31797 -19.31513 -19.31243 -19.31164 -19.31063
 Alpha  occ. eigenvalues --  -19.30983 -19.30931 -19.30690 -19.30337 -19.30316
 Alpha  occ. eigenvalues --  -19.30315 -19.30279 -10.39523 -10.39362 -10.39182
 Alpha  occ. eigenvalues --  -10.38845 -10.38810 -10.38735 -10.38539 -10.38533
 Alpha  occ. eigenvalues --  -10.38499 -10.38463 -10.38340 -10.38323 -10.37245
 Alpha  occ. eigenvalues --  -10.37176 -10.36889 -10.36787 -10.36644 -10.36448
 Alpha  occ. eigenvalues --  -10.36404 -10.35849 -10.35782 -10.35760 -10.35752
 Alpha  occ. eigenvalues --  -10.35712 -10.35622 -10.35608 -10.35560 -10.35550
 Alpha  occ. eigenvalues --  -10.35516 -10.35512 -10.35457 -10.35270 -10.33736
 Alpha  occ. eigenvalues --  -10.33381 -10.33311 -10.33297 -10.33213 -10.33210
 Alpha  occ. eigenvalues --  -10.33092 -10.33086 -10.33024 -10.32875 -10.32863
 Alpha  occ. eigenvalues --  -10.32832 -10.32816 -10.32811 -10.32391 -10.32364
 Alpha  occ. eigenvalues --   -4.01875  -2.70085  -2.69728  -2.69429  -1.19946
 Alpha  occ. eigenvalues --   -1.19615  -1.19321  -1.19139  -1.19048  -1.19029
 Alpha  occ. eigenvalues --   -1.16801  -1.16461  -1.16104  -1.16013  -1.16012
 Alpha  occ. eigenvalues --   -1.16009  -1.00796  -1.00281  -0.99440  -0.99287
 Alpha  occ. eigenvalues --   -0.99044  -0.98854  -0.92865  -0.92637  -0.92579
 Alpha  occ. eigenvalues --   -0.92087  -0.90742  -0.90598  -0.88928  -0.88798
 Alpha  occ. eigenvalues --   -0.88631  -0.88504  -0.88077  -0.87920  -0.85513
 Alpha  occ. eigenvalues --   -0.85272  -0.84898  -0.84664  -0.83098  -0.82906
 Alpha  occ. eigenvalues --   -0.77920  -0.77839  -0.77193  -0.77109  -0.76683
 Alpha  occ. eigenvalues --   -0.76193  -0.75914  -0.75665  -0.74827  -0.74692
 Alpha  occ. eigenvalues --   -0.74094  -0.73239  -0.69767  -0.69452  -0.69081
 Alpha  occ. eigenvalues --   -0.68712  -0.68066  -0.67794  -0.67416  -0.67246
 Alpha  occ. eigenvalues --   -0.67166  -0.66931  -0.66769  -0.66672  -0.63393
 Alpha  occ. eigenvalues --   -0.63079  -0.62904  -0.62638  -0.62112  -0.62068
 Alpha  occ. eigenvalues --   -0.61591  -0.61470  -0.61321  -0.61226  -0.60852
 Alpha  occ. eigenvalues --   -0.60374  -0.57699  -0.57151  -0.57050  -0.56657
 Alpha  occ. eigenvalues --   -0.55993  -0.55515  -0.55251  -0.55060  -0.54989
 Alpha  occ. eigenvalues --   -0.54783  -0.54687  -0.54663  -0.54567  -0.54489
 Alpha  occ. eigenvalues --   -0.54293  -0.54198  -0.54143  -0.53963  -0.53911
 Alpha  occ. eigenvalues --   -0.53737  -0.53613  -0.53242  -0.52893  -0.52396
 Alpha  occ. eigenvalues --   -0.51979  -0.51743  -0.51695  -0.51671  -0.51036
 Alpha  occ. eigenvalues --   -0.50804  -0.50757  -0.50560  -0.49679  -0.49322
 Alpha  occ. eigenvalues --   -0.49044  -0.48973  -0.48773  -0.48677  -0.48638
 Alpha  occ. eigenvalues --   -0.48573  -0.48550  -0.48537  -0.48197  -0.48117
 Alpha  occ. eigenvalues --   -0.47886  -0.47472  -0.47001  -0.46264  -0.45977
 Alpha  occ. eigenvalues --   -0.45662  -0.45623  -0.45586  -0.45579  -0.43953
 Alpha  occ. eigenvalues --   -0.43447  -0.43209  -0.42351  -0.41674  -0.40949
 Alpha  occ. eigenvalues --   -0.40290  -0.39980  -0.39646  -0.38245  -0.38169
 Alpha  occ. eigenvalues --   -0.37742  -0.36795  -0.35487  -0.35294  -0.34576
 Alpha  occ. eigenvalues --   -0.33649  -0.33178  -0.31663  -0.31175  -0.30596
 Alpha  occ. eigenvalues --   -0.30142  -0.28305  -0.26962
 Alpha virt. eigenvalues --   -0.04574  -0.03956  -0.00720  -0.00200   0.00745
 Alpha virt. eigenvalues --    0.01470   0.03961   0.04460   0.04532   0.05134
 Alpha virt. eigenvalues --    0.05217   0.05560   0.05918   0.06155   0.06501
 Alpha virt. eigenvalues --    0.07233   0.07688   0.10054   0.10218   0.11859
 Alpha virt. eigenvalues --    0.11874   0.12098   0.12958   0.13298   0.13862
 Alpha virt. eigenvalues --    0.14526   0.15198   0.15340   0.15459   0.15659
 Alpha virt. eigenvalues --    0.15743   0.15950   0.15999   0.16323   0.16366
 Alpha virt. eigenvalues --    0.16543   0.16863   0.17290   0.17386   0.17831
 Alpha virt. eigenvalues --    0.18147   0.18559   0.18690   0.19155   0.20019
 Alpha virt. eigenvalues --    0.20066   0.20270   0.20590   0.21156   0.21389
 Alpha virt. eigenvalues --    0.21548   0.22409   0.22802   0.23984   0.24258
 Alpha virt. eigenvalues --    0.24561   0.24725   0.24944   0.25798   0.25976
 Alpha virt. eigenvalues --    0.26688   0.27146   0.27516   0.27932   0.28357
 Alpha virt. eigenvalues --    0.28783   0.28916   0.29057   0.29593   0.29770
 Alpha virt. eigenvalues --    0.29920   0.30228   0.30401   0.30808   0.31051
 Alpha virt. eigenvalues --    0.31353   0.31742   0.31779   0.31951   0.32066
 Alpha virt. eigenvalues --    0.32621   0.32915   0.33091   0.33388   0.33485
 Alpha virt. eigenvalues --    0.33699   0.34259   0.34570   0.34781   0.35259
 Alpha virt. eigenvalues --    0.35558   0.35778   0.35984   0.36240   0.36554
 Alpha virt. eigenvalues --    0.37020   0.37422   0.37624   0.37691   0.38674
 Alpha virt. eigenvalues --    0.39375   0.39405   0.39852   0.40045   0.40553
 Alpha virt. eigenvalues --    0.40650   0.40960   0.41350   0.41998   0.42131
 Alpha virt. eigenvalues --    0.42399   0.43074   0.43411   0.43882   0.44127
 Alpha virt. eigenvalues --    0.44347   0.44829   0.44974   0.45525   0.45735
 Alpha virt. eigenvalues --    0.45973   0.46094   0.46613   0.47000   0.47279
 Alpha virt. eigenvalues --    0.48169   0.48302   0.48590   0.48921   0.49051
 Alpha virt. eigenvalues --    0.49735   0.50069   0.50238   0.50850   0.51766
 Alpha virt. eigenvalues --    0.52191   0.52543   0.53534   0.54614   0.54944
 Alpha virt. eigenvalues --    0.55165   0.55303   0.55907   0.56279   0.56395
 Alpha virt. eigenvalues --    0.56534   0.56944   0.57485   0.57686   0.57974
 Alpha virt. eigenvalues --    0.58241   0.58320   0.58796   0.58835   0.59363
 Alpha virt. eigenvalues --    0.59773   0.59874   0.60122   0.60527   0.61004
 Alpha virt. eigenvalues --    0.61325   0.61459   0.61802   0.62181   0.62328
 Alpha virt. eigenvalues --    0.62609   0.63050   0.63242   0.63390   0.63617
 Alpha virt. eigenvalues --    0.63856   0.64211   0.64465   0.64490   0.64749
 Alpha virt. eigenvalues --    0.65081   0.65482   0.66092   0.66229   0.66445
 Alpha virt. eigenvalues --    0.67003   0.67142   0.67351   0.67669   0.67916
 Alpha virt. eigenvalues --    0.68393   0.68845   0.69209   0.69321   0.69596
 Alpha virt. eigenvalues --    0.69907   0.69950   0.70315   0.70774   0.70993
 Alpha virt. eigenvalues --    0.71122   0.71587   0.71809   0.72239   0.72574
 Alpha virt. eigenvalues --    0.72884   0.73459   0.73602   0.73865   0.74102
 Alpha virt. eigenvalues --    0.74234   0.74417   0.74704   0.75022   0.75483
 Alpha virt. eigenvalues --    0.75668   0.75788   0.76202   0.76520   0.76920
 Alpha virt. eigenvalues --    0.77312   0.77669   0.78009   0.78333   0.78609
 Alpha virt. eigenvalues --    0.79375   0.79503   0.79957   0.80007   0.80112
 Alpha virt. eigenvalues --    0.80336   0.80730   0.80802   0.81278   0.81515
 Alpha virt. eigenvalues --    0.81620   0.81911   0.82304   0.82729   0.82811
 Alpha virt. eigenvalues --    0.83161   0.83537   0.84011   0.84317   0.84413
 Alpha virt. eigenvalues --    0.85067   0.85706   0.85998   0.86232   0.86629
 Alpha virt. eigenvalues --    0.87056   0.87255   0.87780   0.88012   0.88250
 Alpha virt. eigenvalues --    0.88310   0.88841   0.88907   0.90006   0.90312
 Alpha virt. eigenvalues --    0.90644   0.90922   0.91315   0.92044   0.92231
 Alpha virt. eigenvalues --    0.92464   0.92693   0.93102   0.93598   0.94197
 Alpha virt. eigenvalues --    0.94553   0.95056   0.95463   0.95680   0.96351
 Alpha virt. eigenvalues --    0.96759   0.96833   0.97614   0.98053   0.98177
 Alpha virt. eigenvalues --    0.99092   0.99620   0.99975   1.00515   1.01036
 Alpha virt. eigenvalues --    1.01491   1.01902   1.02153   1.02431   1.02838
 Alpha virt. eigenvalues --    1.03706   1.04186   1.04653   1.04773   1.05485
 Alpha virt. eigenvalues --    1.05706   1.05880   1.06692   1.06939   1.07322
 Alpha virt. eigenvalues --    1.07785   1.08047   1.08236   1.08601   1.09118
 Alpha virt. eigenvalues --    1.09374   1.09748   1.10485   1.11054   1.11474
 Alpha virt. eigenvalues --    1.11719   1.12215   1.12459   1.12560   1.12699
 Alpha virt. eigenvalues --    1.12942   1.13423   1.13522   1.14113   1.14425
 Alpha virt. eigenvalues --    1.14549   1.14813   1.15352   1.15843   1.16093
 Alpha virt. eigenvalues --    1.16455   1.16642   1.16802   1.17297   1.18017
 Alpha virt. eigenvalues --    1.18367   1.18513   1.19130   1.19389   1.19687
 Alpha virt. eigenvalues --    1.19882   1.20238   1.20829   1.21095   1.21535
 Alpha virt. eigenvalues --    1.22044   1.22554   1.22933   1.23435   1.24355
 Alpha virt. eigenvalues --    1.24636   1.24961   1.25150   1.26026   1.26816
 Alpha virt. eigenvalues --    1.27255   1.27567   1.27639   1.28236   1.28463
 Alpha virt. eigenvalues --    1.28805   1.28964   1.29371   1.29521   1.29811
 Alpha virt. eigenvalues --    1.30179   1.30486   1.30875   1.31162   1.31567
 Alpha virt. eigenvalues --    1.31754   1.31974   1.32173   1.32201   1.32566
 Alpha virt. eigenvalues --    1.32688   1.32948   1.33151   1.33972   1.34234
 Alpha virt. eigenvalues --    1.34788   1.35044   1.35872   1.36137   1.37033
 Alpha virt. eigenvalues --    1.37965   1.39164   1.39680   1.40102   1.40462
 Alpha virt. eigenvalues --    1.40947   1.41124   1.41592   1.41819   1.42180
 Alpha virt. eigenvalues --    1.42285   1.42571   1.42742   1.42945   1.43170
 Alpha virt. eigenvalues --    1.43278   1.43446   1.43739   1.44564   1.44782
 Alpha virt. eigenvalues --    1.45199   1.45661   1.46084   1.46395   1.46862
 Alpha virt. eigenvalues --    1.47363   1.47737   1.50017   1.51151   1.52306
 Alpha virt. eigenvalues --    1.54085   1.54803   1.55544   1.56279   1.56444
 Alpha virt. eigenvalues --    1.56833   1.57285   1.57666   1.58260   1.58734
 Alpha virt. eigenvalues --    1.59187   1.59571   1.59799   1.59881   1.60593
 Alpha virt. eigenvalues --    1.61000   1.61504   1.61660   1.62094   1.62123
 Alpha virt. eigenvalues --    1.63074   1.63136   1.63312   1.63585   1.64291
 Alpha virt. eigenvalues --    1.64678   1.64758   1.65095   1.65150   1.65839
 Alpha virt. eigenvalues --    1.65989   1.67453   1.68526   1.69192   1.70300
 Alpha virt. eigenvalues --    1.70698   1.71070   1.72160   1.72443   1.73214
 Alpha virt. eigenvalues --    1.73454   1.73675   1.74054   1.74969   1.75393
 Alpha virt. eigenvalues --    1.75605   1.76095   1.76507   1.76567   1.76824
 Alpha virt. eigenvalues --    1.77188   1.77606   1.78218   1.78453   1.78769
 Alpha virt. eigenvalues --    1.79425   1.79443   1.79952   1.80460   1.80700
 Alpha virt. eigenvalues --    1.80908   1.81332   1.81684   1.81702   1.82042
 Alpha virt. eigenvalues --    1.82332   1.82659   1.83324   1.83596   1.83871
 Alpha virt. eigenvalues --    1.84252   1.84658   1.85018   1.85336   1.85594
 Alpha virt. eigenvalues --    1.85970   1.86411   1.86782   1.87019   1.87357
 Alpha virt. eigenvalues --    1.87818   1.88613   1.89100   1.89505   1.90227
 Alpha virt. eigenvalues --    1.90265   1.90439   1.90871   1.91203   1.92228
 Alpha virt. eigenvalues --    1.92469   1.92572   1.93591   1.94050   1.94488
 Alpha virt. eigenvalues --    1.94937   1.95321   1.95470   1.95635   1.95824
 Alpha virt. eigenvalues --    1.96159   1.96646   1.96730   1.96743   1.97048
 Alpha virt. eigenvalues --    1.97356   1.97649   1.97932   1.98067   1.98463
 Alpha virt. eigenvalues --    1.98554   1.98704   1.99119   1.99208   1.99293
 Alpha virt. eigenvalues --    1.99357   1.99724   2.00228   2.00740   2.01080
 Alpha virt. eigenvalues --    2.01411   2.01680   2.02178   2.02489   2.03020
 Alpha virt. eigenvalues --    2.03335   2.03500   2.04339   2.04819   2.05152
 Alpha virt. eigenvalues --    2.05331   2.05731   2.06763   2.07486   2.08443
 Alpha virt. eigenvalues --    2.09077   2.09372   2.09580   2.10226   2.10633
 Alpha virt. eigenvalues --    2.11201   2.11736   2.12194   2.13482   2.13802
 Alpha virt. eigenvalues --    2.14117   2.14464   2.16431   2.17465   2.17644
 Alpha virt. eigenvalues --    2.17753   2.18261   2.18820   2.19230   2.19849
 Alpha virt. eigenvalues --    2.20258   2.20457   2.21940   2.22779   2.23237
 Alpha virt. eigenvalues --    2.23610   2.25186   2.25528   2.26142   2.26507
 Alpha virt. eigenvalues --    2.26801   2.26945   2.27239   2.28123   2.28379
 Alpha virt. eigenvalues --    2.28675   2.28804   2.29081   2.29209   2.29476
 Alpha virt. eigenvalues --    2.29709   2.29919   2.30307   2.30624   2.30695
 Alpha virt. eigenvalues --    2.30928   2.31149   2.31270   2.31484   2.31653
 Alpha virt. eigenvalues --    2.31969   2.32196   2.32721   2.33163   2.33422
 Alpha virt. eigenvalues --    2.33584   2.33777   2.34315   2.34484   2.34877
 Alpha virt. eigenvalues --    2.35080   2.35415   2.35780   2.35881   2.36250
 Alpha virt. eigenvalues --    2.36570   2.37245   2.37778   2.38438   2.38958
 Alpha virt. eigenvalues --    2.39536   2.40976   2.41318   2.41870   2.42448
 Alpha virt. eigenvalues --    2.42878   2.43303   2.44107   2.45649   2.46236
 Alpha virt. eigenvalues --    2.47011   2.47392   2.48626   2.49044   2.49688
 Alpha virt. eigenvalues --    2.49913   2.50766   2.51786   2.55974   2.58307
 Alpha virt. eigenvalues --    2.59041   2.59960   2.60220   2.60543   2.65432
 Alpha virt. eigenvalues --    2.65995   2.66285   2.66304   2.66446   2.66611
 Alpha virt. eigenvalues --    2.66850   2.67103   2.67157   2.67541   2.70023
 Alpha virt. eigenvalues --    2.71425   2.71652   2.72369   2.72442   2.72833
 Alpha virt. eigenvalues --    2.73131   2.73437   2.73794   2.74089   2.74556
 Alpha virt. eigenvalues --    2.74674   2.75077   2.78854   2.81309   2.82063
 Alpha virt. eigenvalues --    2.84042   2.84814   2.86610   2.87099   2.87409
 Alpha virt. eigenvalues --    2.88019   2.88158   2.88958   2.89530   2.90050
 Alpha virt. eigenvalues --    2.90541   2.90716   2.91254   2.92564   2.92853
 Alpha virt. eigenvalues --    2.93679   2.94164   2.94579   2.94749   2.94844
 Alpha virt. eigenvalues --    2.95136   2.95398   2.96451   2.96587   2.97137
 Alpha virt. eigenvalues --    2.98089   2.98535   2.99015   2.99080   2.99207
 Alpha virt. eigenvalues --    2.99462   2.99686   3.02727   3.02952   3.05524
 Alpha virt. eigenvalues --    3.05643   3.05665   3.05780   3.06046   3.06359
 Alpha virt. eigenvalues --    3.07860   3.08244   3.08707   3.08770   3.09011
 Alpha virt. eigenvalues --    3.09464   3.10862   3.10993   3.11112   3.11248
 Alpha virt. eigenvalues --    3.11854   3.11963   3.22065   3.22236   3.22314
 Alpha virt. eigenvalues --    3.22399   3.22505   3.23124   3.25545   3.25714
 Alpha virt. eigenvalues --    3.25770   3.26597   3.31122   3.31683   3.34315
 Alpha virt. eigenvalues --    3.34670   3.37501   3.37699   3.38222   3.38684
 Alpha virt. eigenvalues --    3.40632   3.41021   3.42024   3.42378   3.45464
 Alpha virt. eigenvalues --    3.45965   3.54463   3.54793   3.54874   3.55001
 Alpha virt. eigenvalues --    3.56240   3.56479   3.58905   3.59670   3.59987
 Alpha virt. eigenvalues --    3.60280   3.60654   3.61736   3.70862   3.71374
 Alpha virt. eigenvalues --    3.72333   3.73267   3.82292   3.82920   3.87702
 Alpha virt. eigenvalues --    3.87869   3.88216   3.88473   3.88729   3.89048
 Alpha virt. eigenvalues --    3.93720   3.93782   3.93805   3.94058   3.97428
 Alpha virt. eigenvalues --    3.97494   4.76262   4.77305   4.78669   4.79371
 Alpha virt. eigenvalues --    4.79893   4.80339   4.80788
  Beta  occ. eigenvalues -- -277.87543 -33.08030 -28.72136 -28.72056 -28.71985
  Beta  occ. eigenvalues --  -19.31787 -19.31509 -19.31238 -19.31164 -19.31066
  Beta  occ. eigenvalues --  -19.30983 -19.30926 -19.30686 -19.30329 -19.30317
  Beta  occ. eigenvalues --  -19.30314 -19.30279 -10.39504 -10.39352 -10.39175
  Beta  occ. eigenvalues --  -10.38838 -10.38800 -10.38735 -10.38535 -10.38529
  Beta  occ. eigenvalues --  -10.38497 -10.38464 -10.38347 -10.38322 -10.37222
  Beta  occ. eigenvalues --  -10.37145 -10.36822 -10.36739 -10.36593 -10.36436
  Beta  occ. eigenvalues --  -10.36392 -10.35829 -10.35769 -10.35755 -10.35727
  Beta  occ. eigenvalues --  -10.35723 -10.35636 -10.35597 -10.35560 -10.35540
  Beta  occ. eigenvalues --  -10.35517 -10.35512 -10.35458 -10.35244 -10.33750
  Beta  occ. eigenvalues --  -10.33384 -10.33307 -10.33305 -10.33207 -10.33197
  Beta  occ. eigenvalues --  -10.33088 -10.33082 -10.33029 -10.32880 -10.32859
  Beta  occ. eigenvalues --  -10.32830 -10.32809 -10.32806 -10.32397 -10.32364
  Beta  occ. eigenvalues --   -3.87901  -2.54805  -2.54475  -2.54390  -1.19922
  Beta  occ. eigenvalues --   -1.19604  -1.19315  -1.19138  -1.19042  -1.19026
  Beta  occ. eigenvalues --   -1.16781  -1.16452  -1.16100  -1.16010  -1.16008
  Beta  occ. eigenvalues --   -1.16006  -1.00729  -1.00236  -0.99418  -0.99272
  Beta  occ. eigenvalues --   -0.99027  -0.98830  -0.92764  -0.92513  -0.92477
  Beta  occ. eigenvalues --   -0.92000  -0.90725  -0.90579  -0.88883  -0.88773
  Beta  occ. eigenvalues --   -0.88605  -0.88491  -0.88066  -0.87905  -0.85443
  Beta  occ. eigenvalues --   -0.85206  -0.84811  -0.84603  -0.83071  -0.82876
  Beta  occ. eigenvalues --   -0.77882  -0.77813  -0.77164  -0.77091  -0.76651
  Beta  occ. eigenvalues --   -0.76174  -0.75906  -0.75653  -0.74792  -0.74663
  Beta  occ. eigenvalues --   -0.74049  -0.73226  -0.69735  -0.69409  -0.69068
  Beta  occ. eigenvalues --   -0.68696  -0.68038  -0.67771  -0.67407  -0.67235
  Beta  occ. eigenvalues --   -0.67146  -0.66914  -0.66750  -0.66663  -0.63303
  Beta  occ. eigenvalues --   -0.63016  -0.62866  -0.62617  -0.62089  -0.62037
  Beta  occ. eigenvalues --   -0.61557  -0.61443  -0.61297  -0.61194  -0.60816
  Beta  occ. eigenvalues --   -0.60362  -0.57534  -0.57103  -0.57016  -0.56073
  Beta  occ. eigenvalues --   -0.55697  -0.55097  -0.54992  -0.54766  -0.54682
  Beta  occ. eigenvalues --   -0.54669  -0.54501  -0.54488  -0.54268  -0.54182
  Beta  occ. eigenvalues --   -0.54013  -0.53962  -0.53755  -0.53604  -0.53349
  Beta  occ. eigenvalues --   -0.52737  -0.52343  -0.51967  -0.51728  -0.51718
  Beta  occ. eigenvalues --   -0.51675  -0.50743  -0.50676  -0.49894  -0.49407
  Beta  occ. eigenvalues --   -0.49103  -0.49048  -0.48772  -0.48672  -0.48658
  Beta  occ. eigenvalues --   -0.48567  -0.48554  -0.48534  -0.48332  -0.48125
  Beta  occ. eigenvalues --   -0.48062  -0.47759  -0.47512  -0.46312  -0.46101
  Beta  occ. eigenvalues --   -0.45875  -0.45644  -0.45606  -0.45589  -0.45570
  Beta  occ. eigenvalues --   -0.45401  -0.44075  -0.43088  -0.42621  -0.42223
  Beta  occ. eigenvalues --   -0.42093  -0.40891  -0.40449  -0.40113  -0.39724
  Beta  occ. eigenvalues --   -0.38372  -0.38028  -0.37754  -0.36777  -0.35434
  Beta  occ. eigenvalues --   -0.35244  -0.34503  -0.33713  -0.33275  -0.32090
  Beta  occ. eigenvalues --   -0.31312  -0.30638  -0.29999  -0.28139  -0.27203
  Beta virt. eigenvalues --   -0.06916  -0.06470  -0.05439  -0.04053  -0.03555
  Beta virt. eigenvalues --   -0.00040   0.00301   0.00927   0.01654   0.04095
  Beta virt. eigenvalues --    0.04661   0.04958   0.05315   0.05570   0.05695
  Beta virt. eigenvalues --    0.06010   0.06320   0.07130   0.07378   0.07816
  Beta virt. eigenvalues --    0.10122   0.10287   0.11867   0.11895   0.12107
  Beta virt. eigenvalues --    0.13178   0.13493   0.14158   0.14651   0.15296
  Beta virt. eigenvalues --    0.15366   0.15560   0.15749   0.15883   0.16015
  Beta virt. eigenvalues --    0.16092   0.16346   0.16393   0.16587   0.16918
  Beta virt. eigenvalues --    0.17328   0.17418   0.17887   0.18358   0.18594
  Beta virt. eigenvalues --    0.18870   0.19182   0.20055   0.20153   0.20295
  Beta virt. eigenvalues --    0.20691   0.21214   0.21437   0.21558   0.22433
  Beta virt. eigenvalues --    0.23153   0.24116   0.24346   0.24668   0.24794
  Beta virt. eigenvalues --    0.25036   0.25872   0.26082   0.26768   0.27220
  Beta virt. eigenvalues --    0.27612   0.28014   0.28399   0.28815   0.28976
  Beta virt. eigenvalues --    0.29154   0.29644   0.29795   0.29971   0.30263
  Beta virt. eigenvalues --    0.30446   0.30877   0.31141   0.31430   0.31779
  Beta virt. eigenvalues --    0.31871   0.31998   0.32134   0.32753   0.32946
  Beta virt. eigenvalues --    0.33171   0.33427   0.33534   0.33799   0.34284
  Beta virt. eigenvalues --    0.34599   0.34827   0.35305   0.35641   0.35808
  Beta virt. eigenvalues --    0.36031   0.36292   0.36670   0.37142   0.37563
  Beta virt. eigenvalues --    0.37662   0.37907   0.38755   0.39408   0.39485
  Beta virt. eigenvalues --    0.39936   0.40104   0.40656   0.40716   0.41045
  Beta virt. eigenvalues --    0.41375   0.42107   0.42191   0.42587   0.43121
  Beta virt. eigenvalues --    0.43502   0.43909   0.44151   0.44377   0.44860
  Beta virt. eigenvalues --    0.45008   0.45605   0.45768   0.46013   0.46126
  Beta virt. eigenvalues --    0.46642   0.47034   0.47308   0.48192   0.48321
  Beta virt. eigenvalues --    0.48620   0.48949   0.49089   0.49761   0.50108
  Beta virt. eigenvalues --    0.50303   0.50904   0.51802   0.52289   0.52650
  Beta virt. eigenvalues --    0.53607   0.54636   0.54966   0.55203   0.55333
  Beta virt. eigenvalues --    0.55961   0.56325   0.56455   0.56561   0.56976
  Beta virt. eigenvalues --    0.57508   0.57708   0.57994   0.58255   0.58349
  Beta virt. eigenvalues --    0.58825   0.58877   0.59409   0.59822   0.59904
  Beta virt. eigenvalues --    0.60166   0.60573   0.61030   0.61364   0.61525
  Beta virt. eigenvalues --    0.61844   0.62221   0.62350   0.62639   0.63066
  Beta virt. eigenvalues --    0.63287   0.63430   0.63639   0.63911   0.64246
  Beta virt. eigenvalues --    0.64508   0.64538   0.64771   0.65150   0.65530
  Beta virt. eigenvalues --    0.66183   0.66317   0.66491   0.67060   0.67189
  Beta virt. eigenvalues --    0.67378   0.67695   0.67972   0.68436   0.68864
  Beta virt. eigenvalues --    0.69230   0.69352   0.69664   0.69940   0.69996
  Beta virt. eigenvalues --    0.70352   0.70814   0.71019   0.71171   0.71702
  Beta virt. eigenvalues --    0.71862   0.72281   0.72654   0.72964   0.73531
  Beta virt. eigenvalues --    0.73697   0.73951   0.74167   0.74305   0.74487
  Beta virt. eigenvalues --    0.74806   0.75220   0.75567   0.75699   0.75904
  Beta virt. eigenvalues --    0.76362   0.76601   0.77033   0.77360   0.77800
  Beta virt. eigenvalues --    0.78111   0.78402   0.78673   0.79416   0.79683
  Beta virt. eigenvalues --    0.80029   0.80112   0.80143   0.80362   0.80793
  Beta virt. eigenvalues --    0.80849   0.81388   0.81576   0.81819   0.82000
  Beta virt. eigenvalues --    0.82346   0.82819   0.83028   0.83277   0.83593
  Beta virt. eigenvalues --    0.84122   0.84399   0.84466   0.85135   0.85753
  Beta virt. eigenvalues --    0.86037   0.86262   0.86699   0.87094   0.87281
  Beta virt. eigenvalues --    0.87814   0.88035   0.88331   0.88384   0.88903
  Beta virt. eigenvalues --    0.89040   0.90084   0.90350   0.90714   0.90963
  Beta virt. eigenvalues --    0.91405   0.92114   0.92312   0.92514   0.92750
  Beta virt. eigenvalues --    0.93226   0.93676   0.94270   0.94601   0.95104
  Beta virt. eigenvalues --    0.95503   0.95754   0.96443   0.96857   0.96888
  Beta virt. eigenvalues --    0.97657   0.98120   0.98317   0.99134   0.99712
  Beta virt. eigenvalues --    1.00083   1.00568   1.01099   1.01520   1.01966
  Beta virt. eigenvalues --    1.02190   1.02484   1.02888   1.03742   1.04264
  Beta virt. eigenvalues --    1.04810   1.04860   1.05533   1.05961   1.06053
  Beta virt. eigenvalues --    1.06732   1.07023   1.07375   1.07984   1.08215
  Beta virt. eigenvalues --    1.08349   1.08750   1.09231   1.09516   1.09776
  Beta virt. eigenvalues --    1.10513   1.11109   1.11600   1.11786   1.12352
  Beta virt. eigenvalues --    1.12510   1.12665   1.12792   1.13012   1.13566
  Beta virt. eigenvalues --    1.13627   1.14222   1.14552   1.14664   1.14912
  Beta virt. eigenvalues --    1.15419   1.15972   1.16141   1.16503   1.16684
  Beta virt. eigenvalues --    1.17181   1.17330   1.18086   1.18402   1.18866
  Beta virt. eigenvalues --    1.19166   1.19443   1.19859   1.19994   1.20365
  Beta virt. eigenvalues --    1.21158   1.21437   1.21833   1.22367   1.23024
  Beta virt. eigenvalues --    1.23161   1.23506   1.24547   1.25058   1.25372
  Beta virt. eigenvalues --    1.25495   1.26470   1.26899   1.27423   1.27663
  Beta virt. eigenvalues --    1.27818   1.28437   1.28635   1.28905   1.29243
  Beta virt. eigenvalues --    1.29555   1.29794   1.29938   1.30371   1.30563
  Beta virt. eigenvalues --    1.30968   1.31372   1.31615   1.31828   1.32108
  Beta virt. eigenvalues --    1.32318   1.32351   1.32621   1.32742   1.33011
  Beta virt. eigenvalues --    1.33530   1.34114   1.34286   1.34973   1.35478
  Beta virt. eigenvalues --    1.36146   1.36365   1.37228   1.38330   1.39329
  Beta virt. eigenvalues --    1.39975   1.40473   1.40673   1.41069   1.41420
  Beta virt. eigenvalues --    1.41666   1.42011   1.42213   1.42357   1.42603
  Beta virt. eigenvalues --    1.42788   1.42996   1.43242   1.43406   1.43644
  Beta virt. eigenvalues --    1.43862   1.44763   1.44908   1.45558   1.45837
  Beta virt. eigenvalues --    1.46169   1.46420   1.46908   1.47428   1.47787
  Beta virt. eigenvalues --    1.50309   1.51222   1.52521   1.54139   1.54831
  Beta virt. eigenvalues --    1.55610   1.56328   1.56505   1.56934   1.57347
  Beta virt. eigenvalues --    1.57703   1.58291   1.58778   1.59282   1.59610
  Beta virt. eigenvalues --    1.59875   1.60054   1.60641   1.61051   1.61538
  Beta virt. eigenvalues --    1.61725   1.62152   1.62240   1.63144   1.63170
  Beta virt. eigenvalues --    1.63355   1.63642   1.64366   1.64687   1.64800
  Beta virt. eigenvalues --    1.65161   1.65256   1.65894   1.66004   1.67485
  Beta virt. eigenvalues --    1.68557   1.69216   1.70360   1.70834   1.71158
  Beta virt. eigenvalues --    1.72459   1.72484   1.73261   1.73486   1.73710
  Beta virt. eigenvalues --    1.74080   1.75035   1.75451   1.75645   1.76119
  Beta virt. eigenvalues --    1.76546   1.76707   1.76885   1.77218   1.77721
  Beta virt. eigenvalues --    1.78302   1.78524   1.78805   1.79450   1.79576
  Beta virt. eigenvalues --    1.79993   1.80585   1.80761   1.80998   1.81361
  Beta virt. eigenvalues --    1.81734   1.81841   1.82190   1.82433   1.82725
  Beta virt. eigenvalues --    1.83411   1.83829   1.84070   1.84303   1.84754
  Beta virt. eigenvalues --    1.85361   1.85524   1.85734   1.86061   1.86516
  Beta virt. eigenvalues --    1.86901   1.87191   1.87419   1.87844   1.88669
  Beta virt. eigenvalues --    1.89173   1.89540   1.90255   1.90336   1.90468
  Beta virt. eigenvalues --    1.90918   1.91245   1.92285   1.92501   1.92629
  Beta virt. eigenvalues --    1.93619   1.94072   1.94533   1.94966   1.95348
  Beta virt. eigenvalues --    1.95500   1.95646   1.95865   1.96177   1.96679
  Beta virt. eigenvalues --    1.96756   1.96801   1.97075   1.97478   1.97675
  Beta virt. eigenvalues --    1.97967   1.98090   1.98488   1.98608   1.98769
  Beta virt. eigenvalues --    1.99155   1.99255   1.99312   1.99385   1.99751
  Beta virt. eigenvalues --    2.00304   2.00846   2.01108   2.01428   2.01732
  Beta virt. eigenvalues --    2.02239   2.02608   2.03112   2.03367   2.03566
  Beta virt. eigenvalues --    2.04373   2.05021   2.05225   2.05418   2.05883
  Beta virt. eigenvalues --    2.07165   2.07618   2.08488   2.09161   2.09447
  Beta virt. eigenvalues --    2.09649   2.10266   2.10688   2.11251   2.11807
  Beta virt. eigenvalues --    2.12305   2.13688   2.13931   2.14144   2.14511
  Beta virt. eigenvalues --    2.16453   2.17493   2.17664   2.17775   2.18283
  Beta virt. eigenvalues --    2.18840   2.19253   2.19875   2.20279   2.20470
  Beta virt. eigenvalues --    2.21966   2.22796   2.23270   2.23632   2.25207
  Beta virt. eigenvalues --    2.25550   2.26169   2.26527   2.26816   2.26958
  Beta virt. eigenvalues --    2.27257   2.28144   2.28396   2.28687   2.28826
  Beta virt. eigenvalues --    2.29093   2.29220   2.29490   2.29719   2.29927
  Beta virt. eigenvalues --    2.30316   2.30630   2.30702   2.30941   2.31163
  Beta virt. eigenvalues --    2.31281   2.31498   2.31676   2.31993   2.32210
  Beta virt. eigenvalues --    2.32739   2.33179   2.33437   2.33603   2.33789
  Beta virt. eigenvalues --    2.34329   2.34500   2.34901   2.35097   2.35430
  Beta virt. eigenvalues --    2.35793   2.35895   2.36275   2.36582   2.37259
  Beta virt. eigenvalues --    2.37795   2.38454   2.38976   2.39553   2.40996
  Beta virt. eigenvalues --    2.41350   2.41889   2.42471   2.42901   2.43321
  Beta virt. eigenvalues --    2.44122   2.45680   2.46257   2.47032   2.47409
  Beta virt. eigenvalues --    2.48649   2.49064   2.49711   2.49945   2.50793
  Beta virt. eigenvalues --    2.51808   2.55991   2.58325   2.59063   2.59978
  Beta virt. eigenvalues --    2.60239   2.60568   2.65469   2.66019   2.66299
  Beta virt. eigenvalues --    2.66318   2.66457   2.66620   2.66864   2.67116
  Beta virt. eigenvalues --    2.67167   2.67553   2.70033   2.71445   2.71667
  Beta virt. eigenvalues --    2.72397   2.72457   2.72852   2.73155   2.73469
  Beta virt. eigenvalues --    2.73803   2.74101   2.74565   2.74683   2.75094
  Beta virt. eigenvalues --    2.78911   2.81317   2.82074   2.84058   2.84827
  Beta virt. eigenvalues --    2.86625   2.87109   2.87424   2.88036   2.88173
  Beta virt. eigenvalues --    2.88969   2.89545   2.90074   2.90569   2.90772
  Beta virt. eigenvalues --    2.91323   2.92606   2.92892   2.93693   2.94171
  Beta virt. eigenvalues --    2.94594   2.94764   2.94872   2.95150   2.95415
  Beta virt. eigenvalues --    2.96474   2.96614   2.97158   2.98105   2.98554
  Beta virt. eigenvalues --    2.99027   2.99091   2.99218   2.99473   2.99688
  Beta virt. eigenvalues --    3.02767   3.02985   3.05546   3.05652   3.05674
  Beta virt. eigenvalues --    3.05787   3.06052   3.06366   3.07870   3.08252
  Beta virt. eigenvalues --    3.08717   3.08779   3.09019   3.09477   3.10875
  Beta virt. eigenvalues --    3.11007   3.11131   3.11257   3.11873   3.11976
  Beta virt. eigenvalues --    3.22073   3.22246   3.22329   3.22406   3.22518
  Beta virt. eigenvalues --    3.23129   3.25573   3.25737   3.25793   3.26617
  Beta virt. eigenvalues --    3.31138   3.31695   3.34330   3.34683   3.37517
  Beta virt. eigenvalues --    3.37716   3.38234   3.38693   3.40649   3.41033
  Beta virt. eigenvalues --    3.42034   3.42389   3.45485   3.45978   3.54472
  Beta virt. eigenvalues --    3.54807   3.54886   3.55011   3.56251   3.56491
  Beta virt. eigenvalues --    3.58922   3.59686   3.59994   3.60295   3.60670
  Beta virt. eigenvalues --    3.61743   3.70905   3.71414   3.72370   3.73295
  Beta virt. eigenvalues --    3.82321   3.82943   3.87705   3.87872   3.88218
  Beta virt. eigenvalues --    3.88476   3.88733   3.89053   3.93723   3.93792
  Beta virt. eigenvalues --    3.93810   3.94062   3.97445   3.97512   4.87938
  Beta virt. eigenvalues --    4.88486   4.88506   4.89857   4.90667   4.92062
  Beta virt. eigenvalues --    4.93965
          Condensed to atoms (all electrons):
          Atomic-Atomic Spin Densities.
 Mulliken charges and spin densities:
               1          2
     1  C   -0.096141  -0.007231
     2  C    0.008041   0.009679
     3  C   -0.016420   0.018477
     4  C   -0.063827  -0.012360
     5  C    0.144608   0.015041
     6  C    0.155860   0.008004
     7  C   -0.050160   0.005682
     8  C    0.058021   0.022876
     9  C   -0.063412  -0.005169
    10  C   -0.079190   0.004464
    11  C    0.126254  -0.001728
    12  C    0.154124   0.003366
    13  C   -0.119334  -0.000128
    14  C    0.012835   0.003342
    15  C   -0.024713   0.005497
    16  C   -0.033349  -0.002966
    17  C    0.005305   0.014200
    18  C   -0.118065  -0.006065
    19  C    0.145814   0.011225
    20  C    0.149084  -0.007134
    21  C   -0.085103   0.011096
    22  C   -0.050944  -0.014318
    23  C   -0.103011  -0.010819
    24  C    0.096159   0.044690
[...]
 ,0.00000118,0.00000141,-0.00000079,0.00006370,-0.00000025,-0.00008432,
 -0.00001359,0.00000521,0.00008678,0.00010714,0.00005631,-0.00006663,-0
 .00009306,0.00002148,0.00002138,0.00002335,-0.00001349,-0.00002470,0.0
 0005424,-0.00005487,0.00001831,-0.00000716,0.00001797,-0.00000681,0.00
 003948,0.00002567,0.00000070,0.00008732,-0.00004061,-0.00002286,-0.000
 06641,-0.00000833,-0.00000279,-0.00000483,0.00000642,0.00001739,0.0000
 1041,0.00001599,0.00000919,-0.00005134,-0.00003387,-0.00000323,0.00005
 403,0.00001023,-0.00000396,0.00000193,-0.00000001,-0.00000463,0.000011
 40,0.00000631,0.00000295,0.00003234,0.00001439,0.00001526,-0.00000878,
 -0.00005393,-0.00010007,-0.00005412,0.00059869,0.00011802,0.00096596,-
 0.00060202,-0.00007892,-0.00321790,0.00541831,-0.00024640,0.01518494,0
 .02593329,0.00134986,-0.00187774,0.01010117,-0.00004403,0.00055411,-0.
 00164172,0.00007417,-0.00021927,0.00079288,0.00005291,-0.00011024,0.00
 015299,-0.00002870,0.00010793,-0.00032210,0.00001566,-0.00002645,-0.00
 000852,0.00000167,-0.00008401,0.00008002,0.00002783,-0.00002248,-0.000
 04297,0.00000354,0.00001435,0.00000539,0.00000142,-0.18988246,-0.23981
 615,-0.01547455,0.00219633,-0.00065069,0.00009326,-0.00000005,0.000003
 99,0.00000063,-0.00000035,0.00000026,0.00000023,-0.00000045,-0.0000012
 5,0.00000035,0.00000081,-0.00000237,0.00000058,0.00002914,0.00004176,0
 .00003694,0.00000928,0.00002551,-0.00002091,0.00000649,0.00000492,-0.0
 0000007,0.00001615,0.00000457,-0.00000120,-0.00000340,0.00000456,-0.00
 000012,0.00000193,-0.00000323,-0.00000003,0.17643656,-0.00002924,0.000
 00968,0.00000320,-0.00000667,-0.00000964,0.00001567,0.00001359,0.00000
 046,-0.00000389,0.00000464,0.00001018,0.00000864,0.00002300,0.00001398
 ,-0.00000592,0.00002979,-0.00004117,-0.00001274,0.00000722,-0.00000263
 ,0.00003556,-0.00002722,0.00001532,0.00004530,0.00000360,-0.00001570,-
 0.00000784,0.00001534,0.00000825,-0.00000010,-0.00001895,-0.00003282,0
 .00000667,-0.00003800,-0.00000174,0.00000524,0.00000682,0.00001494,0.0
 0000220,-0.00001293,-0.00001028,-0.00000226,0.00001755,0.00002028,0.00
 001428,-0.00000098,-0.00002551,0.00001618,-0.00004777,-0.00000600,0.00
 000515,-0.00004024,-0.00008238,0.00004052,-0.00004659,0.00000925,-0.00
 019707,0.00007862,0.00005390,-0.00011279,0.00006212,-0.00012129,-0.000
 00620,0.00000905,0.00005651,0.00002422,-0.00001107,-0.00006231,0.00002
 765,0.00000057,-0.00004360,0.00002325,-0.00002040,-0.00000268,0.000016
 67,-0.00003990,0.00004755,0.00001107,0.00001564,0.00003495,-0.00000257
 ,0.00003124,0.00000824,-0.00000226,0.00008020,-0.00012373,0.00022079,-
 0.00011640,-0.00007039,0.00012063,-0.00000089,0.00000085,-0.00000135,0
 .00000439,-0.00000018,-0.00000642,0.00000063,-0.00000118,-0.00000212,-
 0.00000286,-0.00000021,-0.00000299,0.00000257,0.00000060,-0.00001911,0
 .00000366,0.00000497,-0.00002253,0.00000597,0.00000336,-0.00000631,0.0
 0000996,-0.00000228,-0.00000549,0.00000094,-0.00000570,-0.00000335,-0.
 00000468,-0.00000360,-0.00000051,-0.00000100,0.00013557,-0.00002846,0.
 00003560,0.00005704,0.00000062,0.00020011,-0.00002728,-0.00030072,-0.0
 0018227,0.00004094,0.00002704,0.00001548,-0.00004321,-0.00002758,0.000
 09770,-0.00011725,0.00002021,-0.00001590,0.00005801,-0.00000386,0.0001
 1056,0.00006965,-0.00001225,0.00019946,-0.00013071,-0.00004764,-0.0001
 1179,-0.00000937,0.00003389,0.00004818,0.00000522,0.00004003,0.0000440
 6,-0.00002402,-0.00000653,0.00005504,0.00002211,-0.00000570,-0.0000451
 5,-0.00011354,0.00000170,-0.00009847,0.00003137,-0.00000237,-0.0000266
 1,0.00001992,-0.00001631,0.00000320,0.00002595,-0.00005401,-0.00004750
 ,0.00028301,0.00023415,-0.00013390,-0.00059231,-0.00009369,-0.00085198
 ,-0.00056040,-0.00004965,0.00399832,-0.00008637,0.00019032,-0.01158027
 ,-0.04219477,-0.00107246,-0.00356598,0.00196930,-0.00015027,-0.0006577
 1,-0.00220357,-0.00009599,0.00004894,0.00149978,-0.00000100,-0.0002789
 6,0.00032092,-0.00005230,0.00040931,-0.00044762,0.00001586,-0.00009694
 ,-0.00001692,0.00001153,-0.00020253,0.00019995,0.00006687,0.00005268,0
 .00013342,-0.00000450,0.00008655,0.00002312,-0.00000026,-0.19062499,-0
 .35716748,-0.01482703,0.00032729,0.00009458,-0.00016890,-0.00000318,0.
 00000849,0.00000376,0.00000184,-0.00000224,0.00000005,0.00000008,0.000
 00420,0.00000113,-0.00000380,-0.00000313,0.00000131,0.00009154,0.00015
 781,0.00001273,-0.00021424,0.00035429,0.00001066,0.00001786,0.00000873
 ,0.00000053,0.00003824,0.00000578,-0.00000563,0.00000910,-0.00001797,0
 .00000042,-0.00001116,-0.00001070,0.00000227,0.20282473,0.39822068,-0.
 00000801,0.00000019,0.00000643,-0.00001103,-0.00001717,0.00000116,-0.0
 0001068,0.00000202,0.00000778,0.00000330,0.00000691,0.00000390,0.00002
 001,0.00001328,0.00000344,0.00000985,-0.00002708,-0.00000126,-0.000046
 26,0.00000976,-0.00005689,0.00003689,0.00000002,-0.00003016,-0.0000110
 7,0.00000462,0.00000203,0.00002048,0.00000909,-0.00000495,-0.00001906,
 -0.00001011,0.00000726,-0.00001015,0.00000046,-0.00000033,-0.00000313,
 0.00000561,0.00000130,-0.00000564,-0.00001894,-0.00000162,0.00001645,0
 .00002216,0.00000213,-0.00000593,-0.00002729,0.00000307,-0.00005827,0.
 00010380,0.00001928,0.00002351,-0.00004996,0.00000127,0.00025870,-0.00
 022432,0.00019142,-0.00043864,-0.00058272,-0.00022625,0.00001505,-0.00
 002827,0.00002805,0.00003879,0.00010032,-0.00000489,0.00002019,0.00013
 052,-0.00006123,0.00009160,-0.00007602,-0.00001281,-0.00001862,-0.0000
 0036,-0.00000161,-0.00001684,0.00002165,0.,0.00001139,0.00002198,-0.00
 000602,0.00000627,0.00000218,-0.00000237,0.00000854,0.00029022,0.00034
 066,-0.00005252,0.00045324,0.00028134,-0.00000029,0.00000117,0.0000002
 9,0.00000119,-0.00000148,0.00000028,-0.00000042,0.00000142,0.00000025,
 0.00000028,-0.00000061,0.00000121,0.00000498,0.00000513,-0.00000403,0.
 00000197,-0.00000338,-0.00000191,0.00000251,0.00000163,0.00000090,0.00
 000418,-0.00000122,0.00000011,0.00000135,-0.00000338,0.00000071,-0.000
 00149,-0.00000050,0.00000166,-0.00009962,0.00005897,-0.00036770,0.0001
 3391,0.00005969,-0.00000980,-0.00013577,-0.00006918,0.00023781,-0.0000
 1294,0.00000515,0.00000474,0.00000939,-0.00000583,0.00000532,0.0000074
 6,-0.00000615,-0.00000058,-0.00000470,0.00000331,-0.00000552,0.0000056
 1,0.00000062,0.00000348,0.00001400,-0.00000494,-0.00000290,-0.00000289
 ,0.00002022,-0.00004372,-0.00001798,-0.00002379,-0.00001215,0.00002858
 ,0.00000541,-0.00000741,-0.00000416,-0.00000277,-0.00000512,0.00000683
 ,-0.00001314,0.00000208,-0.00000882,0.00001025,0.00000091,-0.00000836,
 0.00000162,-0.00000771,0.00001202,0.00001396,-0.00001212,0.00001722,-0
 .00003655,-0.00003054,0.00001301,0.00000682,0.00001786,-0.00005426,-0.
 00000759,0.00174311,-0.00032273,0.00034434,0.00138865,0.00178613,0.001
 42073,-0.00229059,-0.00029778,0.00045034,0.00078841,0.00008934,-0.0002
 1425,-0.00053826,0.00002152,0.00014905,-0.00018134,-0.00002325,0.00002
 949,0.00000525,0.00003119,-0.00004844,-0.00004780,-0.00000371,-0.00000
 115,-0.00000270,-0.00001111,0.00000970,0.00000151,0.00000365,0.0000109
 9,-0.00000230,0.00000985,0.00000147,-0.00000280,-0.01506123,-0.0181466
 9,-0.00615496,-0.00048846,-0.00011335,-0.00041338,-0.00000079,-0.00000
 026,0.00000065,-0.00000001,-0.00000032,0.00000116,-0.00000026,0.000001
 03,0.00000091,0.00000023,0.00000003,0.00000191,0.00002894,-0.00000264,
 -0.00058984,-0.00001139,-0.00000275,0.00016064,0.00000057,0.00000038,0
 .00000299,0.00000268,0.00000072,0.00000096,0.00000109,-0.00000132,0.00
 000154,-0.00000087,-0.00000095,0.00000297,0.01439130,0.01609378,0.0068
 1845,-0.00001866,0.00000285,0.00000464,-0.00000577,-0.00000109,0.00002
 172,0.00003329,-0.00000399,-0.00003253,-0.00000933,0.00001913,0.000006
 78,0.00003397,0.00000304,-0.00000775,0.00001904,-0.00003138,-0.0000047
 8,0.00000414,-0.00001138,0.00004413,-0.00003956,0.00002850,0.00007065,
 -0.00001156,-0.00002283,-0.00001831,0.00001588,0.00001095,0.00000134,-
 0.00001928,-0.00003131,0.00000377,-0.00003509,-0.00000096,0.00000575,0
 .00000853,0.00000923,0.00000685,-0.00001571,-0.00001056,-0.00000395,0.
 00001947,0.00000973,0.00002648,0.00000875,-0.00001452,0.00001827,-0.00
 002957,-0.00001498,0.00000333,-0.00001663,-0.00003687,0.00001516,-0.00
 009569,0.00006854,0.00001531,0.00007181,-0.00002443,-0.00001287,0.0000
 3814,-0.00000049,0.00002589,0.00001078,-0.00004476,-0.00000601,-0.0000
 0594,-0.00017879,0.00008449,-0.00006561,0.00005736,0.00000089,-0.00003
 581,-0.00000414,0.00000839,-0.00003051,0.00002874,0.00000367,0.0000110
 4,0.00002807,0.00000003,0.00002272,0.00000666,-0.00000064,0.00005652,-
 0.00008436,0.00003000,0.00001630,-0.00002080,0.00017669,-0.00000033,0.
 00000050,-0.00000094,0.00000365,0.00000495,-0.00000178,0.00000243,-0.0
 0000435,-0.00000297,-0.00000439,0.00000231,-0.00000265,0.00000570,-0.0
 0000008,-0.00000363,0.00000881,-0.00000163,-0.00000880,0.00000695,0.00
 000716,-0.00000197,0.00000986,0.00000193,-0.00000088,0.00000131,-0.000
 00562,-0.00000500,-0.00000427,-0.00000266,-0.00000026,-0.00000332,0.00
 002314,-0.00001944,0.00006048,0.00001391,-0.00009609,0.00048912,-0.000
 03374,-0.00050202,-0.00003799,-0.00000446,-0.00001397,-0.00002843,-0.0
 0000591,0.00000293,0.00002485,-0.00002421,-0.00000986,-0.00002443,0.00
 004234,0.00001529,0.00006947,0.00002411,-0.00001915,0.00005495,-0.0000
 6513,-0.00000519,0.00000886,0.00000224,0.00005280,0.00002925,0.0000482
 9,-0.00000658,0.00005646,-0.00009515,-0.00000600,0.00016776,0.00009517
 ,-0.00000344,-0.00015623,-0.00020162,0.00000482,-0.00014593,0.00007344
 ,-0.00000045,-0.00008069,0.00001834,-0.00004148,0.00001173,0.00001316,
 -0.00013030,-0.00006529,0.00079956,0.00062981,-0.00068921,-0.00144487,
 -0.00032182,-0.00000542,0.00225515,0.00010080,-0.00040043,-0.00195005,
 -0.00009307,0.00269588,0.00291952,-0.00023483,-0.01333063,-0.00613821,
 -0.00121604,0.00535434,0.00626687,0.00087722,-0.00057106,-0.00007878,-
 0.00000807,-0.00013111,0.00007141,-0.00000854,0.00018618,0.00011940,-0
 .00002633,-0.00008763,-0.00001578,0.00001264,-0.00006897,0.00006585,0.
 00002115,0.00011893,0.00028403,-0.00000995,0.00009851,0.00002394,0.000
 00187,0.00094911,-0.00151870,0.00009333,-0.51418730,-0.04688831,-0.053
 58718,-0.00000143,0.00000135,0.00000209,-0.00000353,0.00000023,-0.0000
 0209,0.00000145,0.00001110,0.00000193,-0.00000584,0.00000017,0.0000012
 7,0.00009200,-0.00005954,0.00005269,-0.00032549,-0.00084564,-0.0001383
 3,0.00001013,0.00001361,0.00000068,0.00001339,0.00000044,-0.00000324,0
 .00002143,-0.00003581,-0.00000005,-0.00001792,-0.00000932,0.00000285,-
 0.00011170,0.00007616,0.00007715,0.52000028,-0.00001145,-0.00000070,0.
 00000109,-0.00001513,0.00000641,0.00000144,-0.00000479,0.00002231,0.00
 000249,0.00000646,-0.00000340,0.00001082,0.00002290,0.00001743,0.00000
 059,0.00000780,-0.00003499,-0.00000608,0.00004009,-0.00002438,0.000056
 53,-0.00005681,-0.00002032,0.00005724,0.00002669,-0.00001159,-0.000005
 50,-0.00000606,-0.00000582,0.00000238,0.00000418,-0.00002949,0.0000046
 3,-0.00003567,-0.00000038,0.00000491,0.00000992,0.00001550,-0.00000102
 ,-0.00001647,0.00000357,0.00000093,0.00001980,-0.00000256,0.00001168,0
 .00001628,-0.00001469,0.00001543,0.00001398,-0.00000555,0.00000997,-0.
 00000082,0.00000627,0.00002187,-0.00004155,0.00001745,-0.00003477,0.00
 002289,0.00001077,-0.00001428,0.00001271,-0.00001486,0.00003343,-0.000
 02142,0.00000002,0.,-0.00003839,-0.00007157,0.00001547,-0.00001686,-0.
 00004560,0.00002296,-0.00001889,-0.00000018,0.00000794,-0.00002390,0.0
 0002941,0.00000482,0.00000642,0.00001948,-0.00000169,0.00003410,0.0000
 0783,-0.00000389,0.00002747,-0.00003653,0.00003550,-0.00001260,-0.0000
 4816,0.00011619,-0.00000023,0.00000029,-0.00000077,0.00000324,-0.00000
 206,-0.00000603,0.00000020,-0.00000080,-0.00000129,-0.00000098,-0.0000
 0006,-0.00000139,0.00000189,-0.00000018,-0.00000250,0.00000961,-0.0000
 0362,-0.00001611,0.00000357,0.00000056,-0.00000449,0.00000642,-0.00000
 186,-0.00000235,0.00000047,-0.00000341,-0.00000201,-0.00000328,-0.0000
 0419,0.00000033,-0.00000297,0.00002313,-0.00001769,0.00002249,0.000052
 95,-0.00006911,0.00018453,0.00020020,-0.00038897,-0.00006815,0.0000237
 9,0.00000589,-0.00000205,-0.00002234,-0.00001291,0.00002231,-0.0000444
 4,0.00000126,0.00000085,0.00003681,0.00000141,0.00004830,0.00003058,-0
 .00000667,0.00008406,-0.00006352,-0.00002102,-0.00007394,-0.00005048,0
 .00008436,0.00011299,-0.00000369,0.00004551,-0.00002603,-0.00001344,-0
 .00000963,0.00006605,0.00004073,0.00000023,-0.00006917,-0.00005106,0.0
 0000336,-0.00004422,-0.00001181,0.00000174,0.00000360,0.00003446,-0.00
 000756,-0.00002898,-0.00004496,-0.00000758,-0.00000928,0.00024348,0.00
 016034,-0.00009267,-0.00043193,-0.00005762,0.00050507,0.00050613,0.000
 01046,-0.00138552,0.00054325,-0.00000224,0.00030673,-0.00685040,-0.000
 17070,-0.04911213,-0.01196242,-0.00499894,-0.00083844,0.00347604,-0.00
 056497,-0.00036125,-0.00039720,0.00005313,-0.00009215,0.00006381,-0.00
 002195,0.00011433,0.00018116,0.00000768,-0.00004936,-0.00000371,0.0000
 0671,-0.00008550,0.00008634,0.00002894,0.00003736,0.00008417,-0.000004
 01,0.00003778,0.00001277,-0.00000066,0.00199299,0.00112057,0.00009487,
 0.00410197,-0.04309915,-0.00000045,-0.00000277,0.00000416,0.00000214,0
 .00000517,-0.00000243,0.00000005,0.00000075,0.00000318,-0.00000005,-0.
 00000317,0.00000015,-0.00000041,-0.00004719,-0.00030316,-0.00000036,0.
 00118233,-0.00092149,-0.00016115,0.00000971,0.00000170,0.00000032,0.00
 001661,0.00000077,-0.00000290,0.00000568,-0.00001140,0.00000022,-0.000
 00598,-0.00000443,0.00000100,-0.00284716,0.00037075,-0.00013055,0.0464
 1461,0.05738200,-0.00000364,-0.00000221,0.00000208,-0.00001740,0.00000
 270,-0.00000340,-0.00001754,0.00001654,0.00000910,0.00000475,-0.000004
 71,0.00000484,0.00001857,0.00001646,0.00000567,0.00000325,-0.00002974,
 -0.00000053,-0.00001175,-0.00001968,-0.00000820,-0.00000541,-0.0000242
 4,0.00000440,0.00001142,-0.00000144,0.00000179,-0.00000033,-0.00000225
 ,-0.00000117,-0.00000043,-0.00001418,0.00000345,-0.00001693,0.00000036
 ,0.00000275,0.00000281,0.00000880,-0.00000285,-0.00000925,-0.00000325,
 0.00000182,0.00001527,-0.00000204,0.00000084,0.00001599,-0.00001475,0.
 00000740,0.00001664,0.00001938,0.00000608,0.00001629,0.00001040,-0.000
 00309,0.00000314,0.00002087,-0.00000857,-0.00004002,-0.00011881,0.0000
 8847,-0.00003687,0.00004830,0.00001057,-0.00001204,-0.00000243,0.00000
 231,-0.00001438,0.00005041,-0.00004015,0.00003569,-0.00006632,0.000003
 72,-0.00001287,0.00000335,-0.00000289,-0.00001595,0.00002371,-0.000000
 50,0.00000534,0.00001260,-0.00000386,0.00001733,0.00000380,-0.00000405
 ,0.00001630,0.00000098,-0.00000626,0.00019713,0.00011677,0.00011147,0.
 00000003,0.00000063,0.00000070,0.00000365,-0.00000565,-0.00000176,-0.0
 0000023,0.00000094,0.00000033,0.00000025,-0.00000061,0.00000079,0.0000
 0160,0.00000235,0.00000157,0.00000297,-0.00003348,-0.00002178,0.000001
 82,-0.00000361,0.00000122,0.00000354,-0.00000294,0.00000077,0.00000048
 ,-0.00000189,0.00000094,-0.00000154,-0.00000204,0.00000171,-0.00002583
 ,0.00000115,0.00000030,-0.00010289,-0.00000766,-0.00016612,-0.00004333
 ,0.00015147,0.00000688,-0.00001105,0.00000793,0.00000382,0.00000524,-0
 .00000821,-0.00000329,-0.00000013,-0.00000830,0.00000925,0.00000373,0.
 00000332,-0.00000638,-0.00000250,0.00000281,0.00000288,0.00001301,-0.0
 0000537,-0.00000248,-0.00002999,-0.00003277,0.00002356,0.00006252,-0.0
 0003059,0.00001950,-0.00001692,0.00001183,-0.00001211,0.00001175,0.000
 00905,-0.00000213,-0.00001452,0.00000789,0.00000261,0.00000555,-0.0000
 1459,0.00000250,0.00001158,0.00001294,0.00000106,-0.00001847,-0.000022
 81,0.00002144,0.00004273,-0.00004318,-0.00002756,-0.00001127,-0.000013
 63,-0.00002723,0.00011339,-0.00000070,0.00020785,0.00003117,0.00005651
 ,0.00116616,0.00008467,0.00007250,0.00241713,-0.00099075,0.00000536,-0
 .00252540,0.00074244,0.00043566,-0.00080753,-0.00014889,-0.00001528,-0
 .00052338,-0.00000903,0.00001265,-0.00002202,0.00001393,0.00001905,0.0
 0001341,0.00000334,0.00000368,-0.00000738,-0.00001046,0.00001136,0.000
 00083,0.00000218,0.00000164,-0.00000265,-0.00000342,0.00000016,-0.0000
 0350,0.00019429,0.00010505,0.00031792,-0.05398017,-0.00631768,-0.00934
 300,-0.00000053,0.00000057,0.00000145,0.00000189,-0.00000163,0.0000072
 2,0.00000030,0.00000066,0.00000047,-0.00000050,0.00000061,0.00000128,0
 .00004076,0.00002835,-0.00044765,-0.00004845,-0.00029330,-0.00006000,0
 .00000045,-0.00000310,0.00000686,0.00000216,0.00000002,0.00000252,0.00
 000012,-0.00000014,0.00000166,0.00000006,0.00000049,0.00000181,-0.0001
 8952,0.00003919,-0.00095166,0.05409367,0.00581397,0.01053535\\-0.00021
 445,0.00005027,-0.00009561,-0.00007072,0.00001811,0.00008946,-0.000004
 82,-0.00014333,0.00011625,-0.00017667,0.00017491,0.00014960,-0.0001055
 3,0.00011551,-0.00006275,-0.00002898,0.00013823,0.00002115,-0.00040477
 ,-0.00014535,0.00009045,0.00036343,-0.00024652,0.00013154,-0.00018660,
 -0.00010585,0.00018508,-0.00012605,-0.00000011,-0.00008715,-0.00025245
 ,-0.00016444,-0.00010623,-0.00018065,0.00002233,-0.00005129,-0.0000041
 2,-0.00014099,0.00002819,-0.00004133,-0.00022801,0.00010628,0.00019121
 ,0.00082753,-0.00034816,-0.00101524,-0.00037948,-0.00068703,-0.0000404
 4,0.00028284,-0.00032377,0.00008500,0.00039230,-0.00005853,-0.00026497
 ,0.00008416,-0.00007721,-0.00015131,0.00015680,0.00000157,-0.00014872,
 -0.00008940,-0.00010104,0.00002616,-0.00012020,-0.00011733,0.00061916,
 -0.00071456,-0.00003167,-0.00043223,0.00045460,0.00043063,-0.00006635,
 0.00013641,-0.00032294,-0.00022432,0.00020585,0.00002311,-0.00018412,-
 0.00011234,-0.00003920,-0.00011645,0.00009331,-0.00006794,-0.00011233,
 0.00017502,0.00022592,-0.00019651,0.00013987,0.00035728,-0.00017018,0.
 00014281,-0.00042047,-0.00010053,0.00012651,-0.00019243,-0.00036750,-0
 .00015050,-0.00018625,-0.00003328,-0.00003567,-0.00002372,-0.00017461,
 0.00025292,0.00035460,-0.00019312,0.00017764,-0.00033010,-0.00007649,0
 .00014034,0.00005639,-0.00017189,0.00016927,-0.00018562,-0.00025845,-0
 .00004118,-0.00017774,-0.00038084,0.00007414,-0.00011410,-0.00008168,0
 .00020988,-0.00008029,-0.00010108,0.00006471,-0.00017496,-0.00003987,-
 0.00084538,0.00050553,0.00013207,0.00005224,-0.00022830,0.00002519,-0.
 00020290,-0.00034131,-0.00012138,-0.00047908,0.00032275,-0.00025808,-0
 .00007678,0.00049518,0.00010801,0.00015898,0.00003003,0.00007673,0.000
 09983,0.00000410,-0.00002931,0.00005562,-0.00051416,0.00025045,-0.0004
 0467,0.00020509,0.00030756,-0.00026020,0.00059573,0.00011071,-0.000239
 35,0.00021932,0.00003294,-0.00027533,0.00003543,0.00025607,0.00019263,
 -0.00005531,0.00052592,0.00005175,-0.00003678,0.00034947,-0.00045269,0
 .00048303,0.00133761,0.00121118,-0.00045800,-0.00039487,-0.00164143,-0
 .00035648,0.00029171,0.00024837,-0.00032136,0.00025114,-0.00008646,-0.
 00021754,0.00004122,0.00001898,-0.00006219,0.00011816,0.00008671,-0.00
 002338,0.00009912,0.00004197,-0.00016638,0.00015252,-0.00006492,0.0000
 5223,-0.00004379,-0.00025690,0.00044181,-0.00035456,0.00002298,0.00061
 538,0.00005934,0.00009483,0.00007086,0.00028722,0.00004376,0.00019140,
 -0.00028374,-0.00000041,-0.00000362,0.00026041,0.00036270,-0.00021114,
 0.00016924,0.00012235,0.00026948,0.00009268,0.00004539,0.00015788,0.00
 013884,-0.00017828,-0.00041321,-0.00008091,-0.00027160,0.00087351,0.00
 007475,-0.00029666,0.00002562,0.00037215,0.00025133,-0.00054185,0.0002
 2296,0.00017355,-0.00001859,0.00013787,0.00021929,-0.00018281,0.000322
 84,0.00005250,0.00023666,0.00001675,0.00006493,0.00020387,0.00007573,-
 0.00016093,-0.00020628,0.00029976,0.00032434,0.00002513,0.00013918,0.0
 0013815,0.00026371,0.00004506,0.00005129,0.00013105\\\@


 THOSE WHO TRY TO PASS CHEMISTRY OFF AS A NEW SCIENCE
 SHOW HOW LITTLE KNOWLEDGE THEY HAVE OF THE CHARACTER
 AND LITERATURE OF THE ANCIENTS.
   -- NICOLAS LEFEVRE
 "COURS DE CHYMIE" J.-N.LELOUP, PARIS, 1751
 Job cpu time:       6 days 18 hours 22 minutes  1.1 seconds.
 Elapsed time:       0 days  5 hours 56 minutes  0.8 seconds.
 File lengths (MBytes):  RWF=  32533 Int=      0 D2E=      0 Chk=    146 Scr=      2
 Normal termination of Gaussian 16 at Mon Apr  4 19:47:45 2022.
