 Entering Gaussian System, Link 0=g16
 Input=ni_smd_ls.gjf
 Output=ni_smd_ls.log
 Initial command:
 /curc/sw/gaussian/16/g16/l1.exe "/rc_scratch/xuwa0145/Gau-142116.inp" -scrdir="/rc_scratch/xuwa0145/"
 Entering Link 1 = /curc/sw/gaussian/16/g16/l1.exe PID=    142117.
  
 Copyright (c) 1988,1990,1992,1993,1995,1998,2003,2009,2016,
            Gaussian, Inc.  All Rights Reserved.
  
 This is part of the Gaussian(R) 16 program.  It is based on
 the Gaussian(R) 09 system (copyright 2009, Gaussian, Inc.),
 the Gaussian(R) 03 system (copyright 2003, Gaussian, Inc.),
 the Gaussian(R) 98 system (copyright 1998, Gaussian, Inc.),
 the Gaussian(R) 94 system (copyright 1995, Gaussian, Inc.),
 the Gaussian 92(TM) system (copyright 1992, Gaussian, Inc.),
 the Gaussian 90(TM) system (copyright 1990, Gaussian, Inc.),
 the Gaussian 88(TM) system (copyright 1988, Gaussian, Inc.),
 the Gaussian 86(TM) system (copyright 1986, Carnegie Mellon
 University), and the Gaussian 82(TM) system (copyright 1983,
 Carnegie Mellon University). Gaussian is a federally registered
 trademark of Gaussian, Inc.
  
 This software contains proprietary and confidential information,
 including trade secrets, belonging to Gaussian, Inc.
  
 This software is provided under written license and may be
 used, copied, transmitted, or stored only in accord with that
 written license.
  
 The following legend is applicable only to US Government
 contracts under FAR:
  
                    RESTRICTED RIGHTS LEGEND
  
 Use, reproduction and disclosure by the US Government is
 subject to restrictions as set forth in subparagraphs (a)
 and (c) of the Commercial Computer Software - Restricted
 Rights clause in FAR 52.227-19.
  
 Gaussian, Inc.
 340 Quinnipiac St., Bldg. 40, Wallingford CT 06492
  
  
 ---------------------------------------------------------------
 Warning -- This program may not be used in any manner that
 competes with the business of Gaussian, Inc. or will provide
 assistance to any competitor of Gaussian, Inc.  The licensee
 of this program is prohibited from giving any competitor of
 Gaussian, Inc. access to this program.  By using this program,
 the user acknowledges that Gaussian, Inc. is engaged in the
 business of creating and licensing software in the field of
 computational chemistry and represents and warrants to the
 licensee that it is not a competitor of Gaussian, Inc. and that
 it will not use this program in any manner prohibited above.
 ---------------------------------------------------------------
  

 Cite this work as:
 Gaussian 16, Revision A.03,
 M. J. Frisch, G. W. Trucks, H. B. Schlegel, G. E. Scuseria, 
 M. A. Robb, J. R. Cheeseman, G. Scalmani, V. Barone, 
 G. A. Petersson, H. Nakatsuji, X. Li, M. Caricato, A. V. Marenich, 
 J. Bloino, B. G. Janesko, R. Gomperts, B. Mennucci, H. P. Hratchian, 
 J. V. Ortiz, A. F. Izmaylov, J. L. Sonnenberg, D. Williams-Young, 
 F. Ding, F. Lipparini, F. Egidi, J. Goings, B. Peng, A. Petrone, 
 T. Henderson, D. Ranasinghe, V. G. Zakrzewski, J. Gao, N. Rega, 
 G. Zheng, W. Liang, M. Hada, M. Ehara, K. Toyota, R. Fukuda, 
 J. Hasegawa, M. Ishida, T. Nakajima, Y. Honda, O. Kitao, H. Nakai, 
 T. Vreven, K. Throssell, J. A. Montgomery, Jr., J. E. Peralta, 
 F. Ogliaro, M. J. Bearpark, J. J. Heyd, E. N. Brothers, K. N. Kudin, 
 V. N. Staroverov, T. A. Keith, R. Kobayashi, J. Normand, 
 K. Raghavachari, A. P. Rendell, J. C. Burant, S. S. Iyengar, 
 J. Tomasi, M. Cossi, J. M. Millam, M. Klene, C. Adamo, R. Cammi, 
 J. W. Ochterski, R. L. Martin, K. Morokuma, O. Farkas, 
 J. B. Foresman, and D. J. Fox, Gaussian, Inc., Wallingford CT, 2016.
 
 ******************************************
 Gaussian 16:  ES64L-G16RevA.03 25-Dec-2016
                19-Jan-2022 
 ******************************************
 %chk=ketone.chk
 %mem=10gb
 %nprocshared=4
 Will use up to    4 processors via shared memory.
 ----------------------------------------------------------------------
 #p wb97xd def2svp scf=qc stable=opt scrf=(smd, solvent=2-propanol) nos
 ymm
 ----------------------------------------------------------------------
 1/38=1,172=1/1;
 2/12=2,15=1,17=6,18=5,40=1/2;
 3/5=43,7=101,11=2,25=1,30=1,70=32201,72=73,74=-58/1,2,3;
 4//1;
 5/5=2,8=3,38=5,53=73/8;
 6/7=2,8=2,9=2,10=2,28=1/1;
 8/6=1,10=90,11=11/1;
 9/8=-3,42=1,46=1/14;
 5/5=2,8=3,17=40,38=5,53=73/8(-2);
 6/7=2,8=2,9=2,10=2,28=1/1;
 99/5=1,9=1/99;
 Leave Link    1 at Wed Jan 19 00:16:12 2022, MaxMem=  1342177280 cpu:               0.3 elap:               0.1
 (Enter /curc/sw/gaussian/16/g16/l101.exe)
 ----------
 [No Title]
 ----------
 Symbolic Z-matrix:
 Charge =  2 Multiplicity = 3
 Ni                    0.        0.        0. 
 
 ITRead=  0
 MicOpt= -1
 NAtoms=      1 NQM=        1 NQMF=       0 NMMI=      0 NMMIF=      0
                NMic=       0 NMicF=      0.
                    Isotopes and Nuclear Properties:
 (Nuclear quadrupole moments (NQMom) in fm**2, nuclear magnetic moments (NMagM)
  in nuclear magnetons)

  Atom         1
 IAtWgt=          58
 AtmWgt=  57.9353471
 NucSpn=           0
 AtZEff=  -0.0000000
 NQMom=    0.0000000
 NMagM=    0.0000000
 AtZNuc=  28.0000000
 Leave Link  101 at Wed Jan 19 00:16:13 2022, MaxMem=  1342177280 cpu:               0.3 elap:               0.1
 (Enter /curc/sw/gaussian/16/g16/l202.exe)
                          Input orientation:                          
 ---------------------------------------------------------------------
 Center     Atomic      Atomic             Coordinates (Angstroms)
 Number     Number       Type             X           Y           Z
 ---------------------------------------------------------------------
      1         28           0        0.000000    0.000000    0.000000
 ---------------------------------------------------------------------
 Symmetry turned off by external request.
 Stoichiometry    Ni(2+,3)
 Framework group  OH[O(Ni)]
 Deg. of freedom     0
 Full point group                 OH      NOp  48
 Leave Link  202 at Wed Jan 19 00:16:13 2022, MaxMem=  1342177280 cpu:               0.0 elap:               0.0
 (Enter /curc/sw/gaussian/16/g16/l301.exe)
 Standard basis: def2SVP (5D, 7F)
 Ernie: Thresh=  0.10000D-02 Tol=  0.10000D-05 Strict=F.
    31 basis functions,    81 primitive gaussians,    36 cartesian basis functions
    14 alpha electrons       12 beta electrons
       nuclear repulsion energy         0.0000000000 Hartrees.
 IExCor= 4639 DFT=T Ex+Corr=wB97XD ExCW=0 ScaHFX=  1.000000
 ScaDFX=  1.000000  1.000000  1.000000  1.000000 ScalE2=  1.000000  1.000000
 IRadAn=      5 IRanWt=     -1 IRanGd=            0 ICorTp=0 IEmpDi=121
 HFx  wShort=  0.000000 wLong=  0.200000 cFull=  0.222036 cShort=  0.000000 cLong=  0.777964
 DFx  wShort=  0.000000 wLong=  0.200000 cFull=  0.000000 cShort=  0.000000 cLong=  1.000000
 NAtoms=    1 NActive=    1 NUniq=    1 SFac= 1.00D+00 NAtFMM=   60 NAOKFM=F Big=F
 Integral buffers will be    131072 words long.
 Raffenetti 2 integral format.
 Two-electron integral symmetry is turned off.
 R6Disp:  Grimme-D2 Dispersion energy=        0.0000000000 Hartrees.
 Nuclear repulsion after empirical dispersion term =        0.0000000000 Hartrees.
 ------------------------------------------------------------------------------
 Polarizable Continuum Model (PCM)
 =================================
 Model                : PCM.
 Atomic radii         : SMD-Coulomb.
 Polarization charges : Total charges.
 Charge compensation  : None.
 Solution method      : On-the-fly selection.
 Cavity type          : VdW (van der Waals Surface) (Alpha=1.000).
 Cavity algorithm     : GePol (No added spheres)
                        Default sphere list used, NSphG=    1.
                        Lebedev-Laikov grids with approx.  5.0 points / Ang**2.
                        Smoothing algorithm: York/Karplus (Gamma=1.0000).
                        Polarization charges: spherical gaussians, with
                                              point-specific exponents (IZeta= 3).
                        Self-potential: point-specific (ISelfS= 7).
                        Self-field    : sphere-specific E.n sum rule (ISelfD= 2).
 Solvent              : 2-Propanol, Eps=  19.264000 Eps(inf)=   1.897782
 ------------------------------------------------------------------------------
 Spheres list:
 ISph  on   Nord     Re0    Alpha      Xe            Ye            Ze
    1  Ni      1    1.6300  1.000      0.000000      0.000000      0.000000
 ------------------------------------------------------------------------------
 GePol: Number of generator spheres                  =       1
 GePol: Total number of spheres                      =       1
 GePol: Number of exposed spheres                    =       1 (100.00%)
 GePol: Number of points                             =     170
 GePol: Average weight of points                     =       0.20
 GePol: Minimum weight of points                     =   0.17D+00
 GePol: Maximum weight of points                     =    0.21314
 GePol: Number of points with low weight             =       0
 GePol: Fraction of low-weight points (<1% of avg)   =       0.00%
 GePol: Cavity surface area                          =     33.388 Ang**2
 GePol: Cavity volume                                =     18.141 Ang**3
 ------------------------------------------------------------------------------
 Atomic radii for non-electrostatic terms: SMD-CDS.
 ------------------------------------------------------------------------------
 PCM non-electrostatic energy =         0.0008702596 Hartrees.
 Nuclear repulsion after PCM non-electrostatic terms =        0.0008702596 Hartrees.
 Leave Link  301 at Wed Jan 19 00:16:13 2022, MaxMem=  1342177280 cpu:               0.2 elap:               0.1
 (Enter /curc/sw/gaussian/16/g16/l302.exe)
 NPDir=0 NMtPBC=     1 NCelOv=     1 NCel=       1 NClECP=     1 NCelD=      1
         NCelK=      1 NCelE2=     1 NClLst=     1 CellRange=     0.0.
 One-electron integrals computed using PRISM.
   1 Symmetry operations used in ECPInt.
 ECPInt:  NShTT=      66 NPrTT=     475 LenC2=      67 LenP2D=     475.
 LDataN:  DoStor=T MaxTD1= 6 Len=  172
 NBasis=    31 RedAO= T EigKep=  1.43D-01  NBF=    31
 NBsUse=    31 1.00D-06 EigRej= -1.00D+00 NBFU=    31
 Precomputing XC quadrature grid using
 IXCGrd= 4 IRadAn=           5 IRanWt=          -1 IRanGd=           0 AccXCQ= 0.00D+00.
 Generated NRdTot=       0 NPtTot=           0 NUsed=           0 NTot=          32
 NSgBfM=    36    36    36    36    36 MxSgAt=     1 MxSgA2=     1.
 Leave Link  302 at Wed Jan 19 00:16:14 2022, MaxMem=  1342177280 cpu:               0.4 elap:               0.1
 (Enter /curc/sw/gaussian/16/g16/l303.exe)
 DipDrv:  MaxL=1.
 Leave Link  303 at Wed Jan 19 00:16:14 2022, MaxMem=  1342177280 cpu:               0.1 elap:               0.0
 (Enter /curc/sw/gaussian/16/g16/l401.exe)
 ExpMin= 3.81D-02 ExpMax= 7.11D+04 ExpMxC= 1.07D+04 IAcc=3 IRadAn=         5 AccDes= 0.00D+00
 Harris functional with IExCor= 4639 and IRadAn=       5 diagonalized for initial guess.
 HarFok:  IExCor= 4639 AccDes= 0.00D+00 IRadAn=         5 IDoV= 1 UseB2=F ITyADJ=14
 ICtDFT=  3500011 ScaDFX=  1.000000  1.000000  1.000000  1.000000
 FoFCou: FMM=F IPFlag=           0 FMFlag=      100000 FMFlg1=           0
         NFxFlg=           0 DoJE=T BraDBF=F KetDBF=T FulRan=T
         wScrn=  0.000000 ICntrl=       500 IOpCl=  0 I1Cent=   200000004 NGrid=           0
         NMat0=    1 NMatS0=      1 NMatT0=    0 NMatD0=    1 NMtDS0=    0 NMtDT0=    0
 Symmetry not used in FoFCou.
 Harris En= -1492.36244757473    
 JPrj=0 DoOrth=F DoCkMO=F.
 Initial guess <Sx>= 0.0000 <Sy>= 0.0000 <Sz>= 1.0000 <S**2>= 2.0000 S= 1.0000
 Leave Link  401 at Wed Jan 19 00:16:14 2022, MaxMem=  1342177280 cpu:               0.6 elap:               0.2
 (Enter /curc/sw/gaussian/16/g16/l508.exe)
 Keep R1 and R2 ints in memory in canonical form, NReq=3944245.
 FoFCou: FMM=F IPFlag=           0 FMFlag=           0 FMFlg1=           0
         NFxFlg=           0 DoJE=F BraDBF=F KetDBF=F FulRan=T
         wScrn=  0.000000 ICntrl=       600 IOpCl=  0 I1Cent=           0 NGrid=           0
         NMat0=    1 NMatS0=    496 NMatT0=    0 NMatD0=    1 NMtDS0=    0 NMtDT0=    0
 Symmetry not used in FoFCou.
 Two-electron integral symmetry not used.
 Tight linear equation convergence will be used.
 UwB97XD wavefunction.
 Quadratic Convergence SCF Method.
 Line search only if initial step raises energy.
 Inv3:  Mode=1 IEnd=       86700.
 Iteration    1 A*A^-1 deviation from unit magnitude is 3.66D-15 for     13.
 Iteration    1 A*A^-1 deviation from orthogonality  is 8.21D-16 for     44      2.
 Iteration    1 A^-1*A deviation from unit magnitude is 3.44D-15 for     13.
 Iteration    1 A^-1*A deviation from orthogonality  is 7.66D-16 for    167     63.
 Iteration   1 EE= -1504.80708007658                                    Grad=2.639D+00 Max rot=   56.5688 deg.
 Gradient too large for Newton-Raphson -- use scaled steepest descent instead.
 Alpha Gap=     0.314 HL deriv= 5.06D-02
  Beta Gap=     0.315 HL deriv= 7.41D-03
     ILin= 1 X=0.000D+00 Y=-1.504807080077D+03 DE= 0.00D+00 F= -6.60D+00
     ILin= 2 X=3.000D-01 Y=-1.506273431515D+03 DE=-1.47D+00 F= -3.20D+00
     ILin= 3 X=4.000D-01 Y=-1.506539550081D+03 DE=-1.73D+00 F= -2.13D+00
     ILin= 4 X=6.000D-01 Y=-1.506766536101D+03 DE=-1.96D+00 F= -1.88D-01
     ILin= 5 X=8.000D-01 Y=-1.506636930627D+03 DE=-1.83D+00 F=  1.43D+00
     An  expanding polynomial of degree  5 produced  0.6210
     Minimum is close to point  4 DX=  2.10D-02 DF= -1.95D-03 DXR=  3.38D-02 DFR=  9.93D-04 which will be used.
 Iteration   2 EE= -1506.76653610116     Delta-E=       -1.959456024580 Grad=1.619D-01 Max rot=    2.7861 deg.
 Gradient too large for Newton-Raphson -- use scaled steepest descent instead.
 Alpha Gap=     0.500 HL deriv= 3.18D-02
  Beta Gap=     0.479 HL deriv= 5.73D-03
     ILin= 1 X=0.000D+00 Y=-1.506766536101D+03 DE= 0.00D+00 F= -1.99D-02
     ILin= 2 X=4.000D-01 Y=-1.506773259275D+03 DE=-6.72D-03 F= -1.37D-02
     ILin= 3 X=7.000D-01 Y=-1.506776673191D+03 DE=-1.01D-02 F= -9.05D-03
     ILin= 4 X=1.300D+00 Y=-1.506779307831D+03 DE=-1.28D-02 F=  2.40D-04
     Accept linear search using points  3 and  4.
     An  expanding polynomial of degree  4 produced  1.2114
     Minimum is close to point  4 DX= -8.86D-02 DF= -2.03D-05 DXR=  7.32D-02 DFR=  1.59D-03 which will be used.
 Iteration   3 EE= -1506.77930783093     Delta-E=       -0.012771729766 Grad=6.500D-02 Max rot=    0.9628 deg.
 Gradient too large for Newton-Raphson -- use scaled steepest descent instead.
 Alpha Gap=     0.502 HL deriv= 3.32D-02
  Beta Gap=     0.479 HL deriv= 6.01D-03
     ILin= 1 X=0.000D+00 Y=-1.506779307831D+03 DE= 0.00D+00 F= -4.10D-03
     ILin= 2 X=9.000D-01 Y=-1.506782234318D+03 DE=-2.93D-03 F= -2.40D-03
     Reject lnstep minimum 2.406D+00 FVal=-1.506785387853D+03 Lims=  0.00D+00  9.00D-01
     ILin= 3 X=1.600D+00 Y=-1.506783452600D+03 DE=-4.14D-03 F= -1.08D-03
     ILin= 4 X=3.100D+00 Y=-1.506782922703D+03 DE=-3.61D-03 F=  1.79D-03
     An  expanding polynomial of degree  4 produced  2.1656
 Iteration   4 EE= -1506.78375719616     Delta-E=       -0.004449365230 Grad=9.399D-02 Max rot=    1.5291 deg.
 Gradient too large for Newton-Raphson -- use scaled steepest descent instead.
 Alpha Gap=     0.514 HL deriv= 3.03D-02
  Beta Gap=     0.490 HL deriv= 7.38D-03
     ILin= 1 X=0.000D+00 Y=-1.506783757196D+03 DE= 0.00D+00 F= -9.00D-03
     ILin= 2 X=1.600D+00 Y=-1.506792349719D+03 DE=-8.59D-03 F= -1.68D-03
     ILin= 3 X=3.100D+00 Y=-1.506789536987D+03 DE=-5.78D-03 F=  5.47D-03
     An  expanding polynomial of degree  3 produced  1.9489
 Iteration   5 EE= -1506.79265017331     Delta-E=       -0.008892977148 Grad=1.459D-01 Max rot=    3.1804 deg.
 Gradient too large for Newton-Raphson -- use scaled steepest descent instead.
 Alpha Gap=     0.510 HL deriv= 3.50D-02
  Beta Gap=     0.484 HL deriv= 7.56D-03
     ILin= 1 X=0.000D+00 Y=-1.506792650173D+03 DE= 0.00D+00 F= -2.50D-02
     ILin= 2 X=2.100D+00 Y=-1.506835807541D+03 DE=-4.32D-02 F= -1.62D-02
     ILin= 3 X=3.600D+00 Y=-1.506855667710D+03 DE=-6.30D-02 F= -1.02D-02
     ILin= 4 X=6.300D+00 Y=-1.506867100926D+03 DE=-7.45D-02 F=  2.27D-03
     ILin= 5 X=1.090D+01 Y=-1.506788076311D+03 DE= 4.57D-03 F=  3.52D-02
     An  expanding polynomial of degree  5 produced  5.8652
     Minimum is close to point  4 DX= -4.35D-01 DF= -4.80D-04 DXR=  7.41D-02 DFR=  6.45D-03 which will be used.
 Iteration   6 EE= -1506.86710092645     Delta-E=       -0.074450753144 Grad=8.828D-01 Max rot=   16.8023 deg.
 Gradient too large for Newton-Raphson -- use scaled steepest descent instead.
 Alpha Gap=     0.640 HL deriv= 5.08D-02
  Beta Gap=     0.508 HL deriv= 1.00D-04
     ILin= 1 X=0.000D+00 Y=-1.506867100926D+03 DE= 0.00D+00 F= -8.50D-01
     ILin= 2 X=1.200D+00 Y=-1.507202546527D+03 DE=-3.35D-01 F=  3.14D-01
     Accept linear search using points  1 and  2.
     An  expanding polynomial of degree  2 produced  0.9478
 Iteration   7 EE= -1507.25075694263     Delta-E=       -0.383656016177 Grad=5.154D-01 Max rot=   11.4847 deg.
 Gradient too large for Newton-Raphson -- use scaled steepest descent instead.
 Alpha Gap=     0.577 HL deriv= 1.64D-02
  Beta Gap=     0.431 HL deriv= 3.56D-03
     ILin= 1 X=0.000D+00 Y=-1.507250756943D+03 DE= 0.00D+00 F= -7.42D-01
     ILin= 2 X=1.000D+00 Y=-1.507701903223D+03 DE=-4.51D-01 F= -1.01D-01
     Reject lnstep minimum 1.118D+00 FVal=-1.507707913249D+03 Lims=  0.00D+00  1.00D+00
     ILin= 3 X=1.400D+00 Y=-1.507659663969D+03 DE=-4.09D-01 F=  3.48D-01
     An  expanding polynomial of degree  3 produced  1.0672
     Minimum is close to point  2 DX=  6.72D-02 DF= -1.80D-03 DXR=  6.30D-02 DFR=  3.98D-03 which will be used.
 Iteration   8 EE= -1507.70190322275     Delta-E=       -0.451146280124 Grad=2.804D-01 Max rot=    9.0906 deg.
 Gradient too large for Newton-Raphson -- use scaled steepest descent instead.
 Alpha Gap=     0.662 HL deriv= 9.33D-03
  Beta Gap=     0.439 HL deriv= 8.76D-03
     ILin= 1 X=0.000D+00 Y=-1.507701903223D+03 DE= 0.00D+00 F= -8.19D-02
     ILin= 2 X=1.000D+00 Y=-1.507754630314D+03 DE=-5.27D-02 F= -2.30D-02
     Reject lnstep minimum 1.377D+00 FVal=-1.507758991621D+03 Lims=  0.00D+00  1.00D+00
     ILin= 3 X=1.600D+00 Y=-1.507757437274D+03 DE=-5.55D-02 F=  1.39D-02
     Accept linear search using points  2 and  3.
     An  expanding polynomial of degree  3 produced  1.3320
 Iteration   9 EE= -1507.75892545375     Delta-E=       -0.057022231005 Grad=7.649D-02 Max rot=    1.6380 deg.
 Gradient too large for Newton-Raphson -- use scaled steepest descent instead.
 Alpha Gap=     0.675 HL deriv= 1.58D-02
  Beta Gap=     0.445 HL deriv= 1.09D-02
     ILin= 1 X=0.000D+00 Y=-1.507758925454D+03 DE= 0.00D+00 F= -1.06D-02
     ILin= 2 X=1.200D+00 Y=-1.507766494904D+03 DE=-7.57D-03 F= -2.21D-03
     Reject lnstep minimum 1.349D+00 FVal=-1.507766635262D+03 Lims=  0.00D+00  1.20D+00
     ILin= 3 X=2.100D+00 Y=-1.507765912963D+03 DE=-6.99D-03 F=  3.41D-03
     An  expanding polynomial of degree  3 produced  1.5524
 Iteration  10 EE= -1507.76687091850     Delta-E=       -0.007945464746 Grad=7.678D-02 Max rot=    1.3100 deg.
 Gradient too large for Newton-Raphson -- use scaled steepest descent instead.
 Alpha Gap=     0.631 HL deriv= 5.74D-03
  Beta Gap=     0.439 HL deriv= 7.07D-03
     ILin= 1 X=0.000D+00 Y=-1.507766870919D+03 DE= 0.00D+00 F= -7.16D-03
     ILin= 2 X=1.400D+00 Y=-1.507767526316D+03 DE=-6.55D-04 F=  6.36D-03
     Accept linear search using points  1 and  2.
     An  expanding polynomial of degree  2 produced  0.7806
 Iteration  11 EE= -1507.76957450317     Delta-E=       -0.002703584670 Grad=3.757D-02 Max rot=    0.9509 deg.
 Gradient too large for Newton-Raphson -- use scaled steepest descent instead.
 Alpha Gap=     0.657 HL deriv= 1.67D-03
  Beta Gap=     0.444 HL deriv= 7.63D-03
     ILin= 1 X=0.000D+00 Y=-1.507769574503D+03 DE= 0.00D+00 F= -2.21D-03
     ILin= 2 X=1.100D+00 Y=-1.507770992742D+03 DE=-1.42D-03 F= -3.68D-04
     Reject lnstep minimum 1.246D+00 FVal=-1.507771017475D+03 Lims=  0.00D+00  1.10D+00
     ILin= 3 X=2.100D+00 Y=-1.507770531216D+03 DE=-9.57D-04 F=  1.29D-03
     An  expanding polynomial of degree  3 produced  1.3232
 Iteration  12 EE= -1507.77103348571     Delta-E=       -0.001458982539 Grad=4.080D-02 Max rot=    0.6987 deg.
 Gradient too large for Newton-Raphson -- use scaled steepest descent instead.
 Alpha Gap=     0.633 HL deriv= 1.03D-03
  Beta Gap=     0.441 HL deriv= 5.90D-03
     ILin= 1 X=0.000D+00 Y=-1.507771033486D+03 DE= 0.00D+00 F= -2.47D-03
     ILin= 2 X=1.000D+00 Y=-1.507772066932D+03 DE=-1.03D-03 F=  4.15D-04
     Accept linear search using points  1 and  2.
     An  expanding polynomial of degree  2 produced  0.8575
 Iteration  13 EE= -1507.77209652404     Delta-E=       -0.001063038332 Grad=2.699D-02 Max rot=    0.5777 deg.
 Gradient too large for Newton-Raphson -- use scaled steepest descent instead.
 Alpha Gap=     0.648 HL deriv= 1.54D-03
  Beta Gap=     0.444 HL deriv= 5.83D-03
     ILin= 1 X=0.000D+00 Y=-1.507772096524D+03 DE= 0.00D+00 F= -1.24D-03
     ILin= 2 X=1.100D+00 Y=-1.507772903233D+03 DE=-8.07D-04 F= -2.31D-04
     Reject lnstep minimum 1.263D+00 FVal=-1.507772920606D+03 Lims=  0.00D+00  1.10D+00
     ILin= 3 X=2.100D+00 Y=-1.507772678044D+03 DE=-5.82D-04 F=  6.80D-04
     An  expanding polynomial of degree  3 produced  1.3533
 Iteration  14 EE= -1507.77293237178     Delta-E=       -0.000835847734 Grad=3.249D-02 Max rot=    0.5569 deg.
 Gradient too large for Newton-Raphson -- use scaled steepest descent instead.
 Alpha Gap=     0.629 HL deriv= 1.16D-03
  Beta Gap=     0.441 HL deriv= 4.46D-03
     ILin= 1 X=0.000D+00 Y=-1.507772932372D+03 DE= 0.00D+00 F= -1.55D-03
     ILin= 2 X=1.100D+00 Y=-1.507773549035D+03 DE=-6.17D-04 F=  4.36D-04
     Accept linear search using points  1 and  2.
     An  expanding polynomial of degree  2 produced  0.8894
 Iteration  15 EE= -1507.77360055558     Delta-E=       -0.000668183800 Grad=2.273D-02 Max rot=    0.4483 deg.
 Gradient too large for Newton-Raphson -- use scaled steepest descent instead.
 Alpha Gap=     0.642 HL deriv= 1.20D-03
  Beta Gap=     0.443 HL deriv= 4.38D-03
     ILin= 1 X=0.000D+00 Y=-1.507773600556D+03 DE= 0.00D+00 F= -8.46D-04
     ILin= 2 X=1.100D+00 Y=-1.507774111969D+03 DE=-5.11D-04 F= -8.45D-05
     Reject lnstep minimum 1.186D+00 FVal=-1.507774115297D+03 Lims=  0.00D+00  1.10D+00
     ILin= 3 X=2.200D+00 Y=-1.507773787874D+03 DE=-1.87D-04 F=  6.73D-04
     An  expanding polynomial of degree  3 produced  1.2233
 Iteration  16 EE= -1507.77411714046     Delta-E=       -0.000516584880 Grad=2.431D-02 Max rot=    0.4428 deg.
 Gradient too large for Newton-Raphson -- use scaled steepest descent instead.
 Alpha Gap=     0.628 HL deriv= 8.30D-04
  Beta Gap=     0.441 HL deriv= 3.44D-03
     ILin= 1 X=0.000D+00 Y=-1.507774117140D+03 DE= 0.00D+00 F= -9.02D-04
     ILin= 2 X=1.000D+00 Y=-1.507774529085D+03 DE=-4.12D-04 F=  7.94D-05
     Accept linear search using points  1 and  2.
     An  expanding polynomial of degree  2 produced  0.9195
     Minimum is close to point  2 DX= -8.05D-02 DF= -3.20D-06 DXR=  8.76D-02 DFR=  7.76D-03 which will be used.
 Iteration  17 EE= -1507.77452908465     Delta-E=       -0.000411944195 Grad=2.088D-02 Max rot=    0.3615 deg.
 Gradient too large for Newton-Raphson -- use scaled steepest descent instead.
 Alpha Gap=     0.638 HL deriv= 1.10D-03
  Beta Gap=     0.442 HL deriv= 3.32D-03
     ILin= 1 X=0.000D+00 Y=-1.507774529085D+03 DE= 0.00D+00 F= -6.46D-04
     ILin= 2 X=1.100D+00 Y=-1.507774849970D+03 DE=-3.21D-04 F=  6.22D-05
     Accept linear search using points  1 and  2.
     An  expanding polynomial of degree  2 produced  1.0217
     Minimum is close to point  2 DX= -7.83D-02 DF= -2.20D-06 DXR=  7.66D-02 DFR=  6.87D-03 which will be used.
 Iteration  18 EE= -1507.77484996975     Delta-E=       -0.000320885100 Grad=1.935D-02 Max rot=    0.3504 deg.
 Gradient too large for Newton-Raphson -- use scaled steepest descent instead.
 Alpha Gap=     0.626 HL deriv= 6.65D-04
  Beta Gap=     0.440 HL deriv= 2.64D-03
     ILin= 1 X=0.000D+00 Y=-1.507774849970D+03 DE= 0.00D+00 F= -5.71D-04
     ILin= 2 X=1.000D+00 Y=-1.507775110994D+03 DE=-2.61D-04 F=  4.99D-05
     Accept linear search using points  1 and  2.
     An  expanding polynomial of degree  2 produced  0.9199
     Minimum is close to point  2 DX= -8.01D-02 DF= -2.00D-06 DXR=  8.70D-02 DFR=  7.65D-03 which will be used.
 Iteration  19 EE= -1507.77511099391     Delta-E=       -0.000261024158 Grad=1.659D-02 Max rot=    0.2898 deg.
 Gradient too large for Newton-Raphson -- use scaled steepest descent instead.
 Alpha Gap=     0.634 HL deriv= 8.63D-04
  Beta Gap=     0.441 HL deriv= 2.53D-03
     ILin= 1 X=0.000D+00 Y=-1.507775110994D+03 DE= 0.00D+00 F= -4.07D-04
     ILin= 2 X=1.000D+00 Y=-1.507775314089D+03 DE=-2.03D-04 F=  3.08D-07
     Accept linear search using points  1 and  2.
     An  expanding polynomial of degree  2 produced  0.9992
     Minimum is close to point  2 DX= -7.59D-04 DF= -1.17D-10 DXR=  7.59D-04 DFR=  5.75D-07 which will be used.
 Iteration  20 EE= -1507.77531408923     Delta-E=       -0.000203095326 Grad=1.316D-02 Max rot=    0.2738 deg.
 Gradient too large for Newton-Raphson -- use scaled steepest descent instead.
 Alpha Gap=     0.626 HL deriv= 4.05D-04
  Beta Gap=     0.440 HL deriv= 2.06D-03
     ILin= 1 X=0.000D+00 Y=-1.507775314089D+03 DE= 0.00D+00 F= -2.92D-04
     ILin= 2 X=1.000D+00 Y=-1.507775472728D+03 DE=-1.59D-04 F= -2.50D-05
     Reject lnstep minimum 1.093D+00 FVal=-1.507775473895D+03 Lims=  0.00D+00  1.00D+00
     ILin= 3 X=1.900D+00 Y=-1.507775386599D+03 DE=-7.25D-05 F=  2.17D-04
     An  expanding polynomial of degree  3 produced  1.0925
     Minimum is close to point  2 DX=  9.25D-02 DF= -1.15D-06 DXR=  8.47D-02 DFR=  7.23D-03 which will be used.
 Iteration  21 EE= -1507.77547272847     Delta-E=       -0.000158639233 Grad=1.141D-02 Max rot=    0.2187 deg.
 Gradient too large for Newton-Raphson -- use scaled steepest descent instead.
 Alpha Gap=     0.631 HL deriv= 5.80D-04
  Beta Gap=     0.440 HL deriv= 1.94D-03
     ILin= 1 X=0.000D+00 Y=-1.507775472728D+03 DE= 0.00D+00 F= -2.11D-04
     ILin= 2 X=1.000D+00 Y=-1.507775596036D+03 DE=-1.23D-04 F= -3.56D-05
     Reject lnstep minimum 1.203D+00 FVal=-1.507775599640D+03 Lims=  0.00D+00  1.00D+00
     ILin= 3 X=2.100D+00 Y=-1.507775529147D+03 DE=-5.64D-05 F=  1.57D-04
     An  expanding polynomial of degree  3 produced  1.2032
 Iteration  22 EE= -1507.77559963984     Delta-E=       -0.000126911372 Grad=1.183D-02 Max rot=    0.2127 deg.
 Gradient too large for Newton-Raphson -- use scaled steepest descent instead.
 Alpha Gap=     0.624 HL deriv= 4.11D-04
  Beta Gap=     0.439 HL deriv= 1.54D-03
     ILin= 1 X=0.000D+00 Y=-1.507775599640D+03 DE= 0.00D+00 F= -2.14D-04
     ILin= 2 X=1.100D+00 Y=-1.507775694446D+03 DE=-9.48D-05 F=  4.18D-05
     Accept linear search using points  1 and  2.
     An  expanding polynomial of degree  2 produced  0.9478
 Iteration  23 EE= -1507.77569810472     Delta-E=       -0.000098464880 Grad=9.276D-03 Max rot=    0.1748 deg.
 QCNR:  CnvC1=2.16D-09 CnvC2=2.16D-08
 LinEq1:  Iter=  0 NonCon=     1 RMS=4.91D-04 Max=8.28D-03 NDo=     1
 AX will form     1 AO Fock derivatives at one time.
 LinEq1:  Iter=  1 NonCon=     1 RMS=2.92D-04 Max=2.21D-03 NDo=     1
 LinEq1:  Iter=  2 NonCon=     1 RMS=2.87D-05 Max=3.81D-04 NDo=     1
 LinEq1:  Iter=  3 NonCon=     1 RMS=4.41D-06 Max=4.81D-05 NDo=     1
 LinEq1:  Iter=  4 NonCon=     1 RMS=9.82D-07 Max=9.92D-06 NDo=     1
 LinEq1:  Iter=  5 NonCon=     1 RMS=2.09D-07 Max=1.94D-06 NDo=     1
 LinEq1:  Iter=  6 NonCon=     1 RMS=2.99D-08 Max=2.77D-07 NDo=     1
 LinEq1:  Iter=  7 NonCon=     1 RMS=7.44D-09 Max=9.43D-08 NDo=     1
 LinEq1:  Iter=  8 NonCon=     1 RMS=2.24D-09 Max=1.97D-08 NDo=     1
 LinEq1:  Iter=  9 NonCon=     0 RMS=4.48D-10 Max=4.84D-09 NDo=     1
 Linear equations converged to 2.159D-09 2.159D-08 after     9 iterations.
 Angle between quadratic step and gradient=  61.67 degrees.
     ILin= 1 X=0.000D+00 Y=-1.507775698105D+03 DE= 0.00D+00 F= -6.70D-04
     ILin= 2 X=1.000D+00 Y=-1.507776021087D+03 DE=-3.23D-04 F=  3.48D-05
     Accept linear search using points  1 and  2.
     An  expanding polynomial of degree  2 produced  0.9527
     Minimum is close to point  2 DX= -4.73D-02 DF= -8.24D-07 DXR=  4.97D-02 DFR=  2.55D-03 which will be used.
 Iteration  24 EE= -1507.77602108734     Delta-E=       -0.000322982617 Grad=1.035D-03 Max rot=    0.0271 deg.
 QCNR:  CnvC1=2.16D-09 CnvC2=2.16D-08
 LinEq1:  Iter=  0 NonCon=     1 RMS=3.00D-05 Max=4.82D-04 NDo=     1
 LinEq1:  Iter=  1 NonCon=     1 RMS=5.90D-06 Max=4.87D-05 NDo=     1
 LinEq1:  Iter=  2 NonCon=     1 RMS=1.67D-06 Max=1.72D-05 NDo=     1
 LinEq1:  Iter=  3 NonCon=     1 RMS=8.22D-07 Max=7.29D-06 NDo=     1
 LinEq1:  Iter=  4 NonCon=     1 RMS=1.66D-07 Max=1.12D-06 NDo=     1
 LinEq1:  Iter=  5 NonCon=     1 RMS=4.35D-08 Max=6.94D-07 NDo=     1
 LinEq1:  Iter=  6 NonCon=     1 RMS=1.13D-08 Max=7.79D-08 NDo=     1
 LinEq1:  Iter=  7 NonCon=     0 RMS=1.51D-09 Max=1.26D-08 NDo=     1
 Linear equations converged to 2.159D-09 2.159D-08 after     7 iterations.
 Angle between quadratic step and gradient=  76.72 degrees.
     ILin= 1 X=0.000D+00 Y=-1.507776021087D+03 DE= 0.00D+00 F= -2.48D-06
     ILin= 2 X=1.000D+00 Y=-1.507776022279D+03 DE=-1.19D-06 F=  9.56D-08
     Accept linear search using points  1 and  2.
     An  expanding polynomial of degree  2 produced  0.9628
     Minimum is close to point  2 DX= -3.72D-02 DF= -1.78D-09 DXR=  3.86D-02 DFR=  1.49D-03 which will be used.
 Iteration  25 EE= -1507.77602227944     Delta-E=       -0.000001192105 Grad=6.861D-04 Max rot=    0.0223 deg.
 QCNR:  CnvC1=2.16D-09 CnvC2=2.16D-08
 LinEq1:  Iter=  0 NonCon=     1 RMS=5.58D-06 Max=6.06D-05 NDo=     1
 LinEq1:  Iter=  1 NonCon=     1 RMS=1.21D-06 Max=1.09D-05 NDo=     1
 LinEq1:  Iter=  2 NonCon=     1 RMS=3.30D-07 Max=4.56D-06 NDo=     1
 LinEq1:  Iter=  3 NonCon=     1 RMS=1.54D-07 Max=1.28D-06 NDo=     1
 LinEq1:  Iter=  4 NonCon=     1 RMS=7.18D-08 Max=6.24D-07 NDo=     1
 LinEq1:  Iter=  5 NonCon=     1 RMS=2.41D-08 Max=3.04D-07 NDo=     1
 LinEq1:  Iter=  6 NonCon=     1 RMS=5.31D-09 Max=3.18D-08 NDo=     1
 LinEq1:  Iter=  7 NonCon=     0 RMS=8.42D-10 Max=7.21D-09 NDo=     1
 Linear equations converged to 2.159D-09 2.159D-08 after     7 iterations.
 Angle between quadratic step and gradient=  89.25 degrees.
     ILin= 1 X=0.000D+00 Y=-1.507776022279D+03 DE= 0.00D+00 F= -1.29D-07
     ILin= 2 X=1.000D+00 Y=-1.507776022159D+03 DE= 1.20D-07 F=  3.70D-07
     Reject lnstep minimum 2.587D-01 FVal=-1.507776022296D+03 Lims=  0.00D+00  1.00D+00
     ILin= 3 X=3.000D-01 Y=-1.507776022296D+03 DE=-1.62D-08 F=  2.06D-08
     A contracting polynomial of degree  3 produced  0.2585
 Iteration  26 EE= -1507.77602229610     Delta-E=       -0.000000016659 Grad=1.017D-03 Max rot=    0.0292 deg.
 QCNR:  CnvC1=2.16D-09 CnvC2=2.16D-08
 LinEq1:  Iter=  0 NonCon=     1 RMS=4.81D-06 Max=5.47D-05 NDo=     1
 LinEq1:  Iter=  1 NonCon=     1 RMS=1.08D-06 Max=9.95D-06 NDo=     1
 LinEq1:  Iter=  2 NonCon=     1 RMS=2.76D-07 Max=4.07D-06 NDo=     1
 LinEq1:  Iter=  3 NonCon=     1 RMS=9.32D-08 Max=8.97D-07 NDo=     1
 LinEq1:  Iter=  4 NonCon=     1 RMS=2.07D-08 Max=2.16D-07 NDo=     1
 LinEq1:  Iter=  5 NonCon=     1 RMS=1.48D-08 Max=1.68D-07 NDo=     1
 LinEq1:  Iter=  6 NonCon=     1 RMS=5.73D-09 Max=4.15D-08 NDo=     1
 LinEq1:  Iter=  7 NonCon=     0 RMS=7.08D-10 Max=5.54D-09 NDo=     1
 Linear equations converged to 2.159D-09 2.159D-08 after     7 iterations.
 Angle between quadratic step and gradient=  89.14 degrees.
     ILin= 1 X=0.000D+00 Y=-1.507776022296D+03 DE= 0.00D+00 F= -4.73D-07
     ILin= 2 X=1.000D+00 Y=-1.507776021074D+03 DE= 1.22D-06 F=  2.92D-06
     Reject lnstep minimum 1.399D-01 FVal=-1.507776022329D+03 Lims=  0.00D+00  1.00D+00
     ILin= 3 X=1.000D-01 Y=-1.507776022327D+03 DE=-3.04D-08 F= -1.35D-07
     A contracting polynomial of degree  3 produced  0.1397
 Iteration  27 EE= -1507.77602232920     Delta-E=       -0.000000033104 Grad=3.826D-04 Max rot=    0.0079 deg.
 QCNR:  CnvC1=2.16D-09 CnvC2=2.16D-08
 LinEq1:  Iter=  0 NonCon=     1 RMS=4.68D-06 Max=4.75D-05 NDo=     1
 LinEq1:  Iter=  1 NonCon=     1 RMS=1.05D-06 Max=1.09D-05 NDo=     1
 LinEq1:  Iter=  2 NonCon=     1 RMS=2.75D-07 Max=3.51D-06 NDo=     1
 LinEq1:  Iter=  3 NonCon=     1 RMS=1.47D-07 Max=1.47D-06 NDo=     1
 LinEq1:  Iter=  4 NonCon=     1 RMS=8.19D-08 Max=5.45D-07 NDo=     1
 LinEq1:  Iter=  5 NonCon=     1 RMS=1.60D-08 Max=2.56D-07 NDo=     1
 LinEq1:  Iter=  6 NonCon=     1 RMS=3.87D-09 Max=2.59D-08 NDo=     1
 LinEq1:  Iter=  7 NonCon=     0 RMS=1.09D-09 Max=7.83D-09 NDo=     1
 Linear equations converged to 2.159D-09 2.159D-08 after     7 iterations.
 Angle between quadratic step and gradient=  89.13 degrees.
     ILin= 1 X=0.000D+00 Y=-1.507776022329D+03 DE= 0.00D+00 F= -1.54D-07
     ILin= 2 X=1.000D+00 Y=-1.507776022164D+03 DE= 1.65D-07 F=  4.84D-07
     Reject lnstep minimum 2.406D-01 FVal=-1.507776022348D+03 Lims=  0.00D+00  1.00D+00
     ILin= 3 X=2.000D-01 Y=-1.507776022347D+03 DE=-1.80D-08 F= -2.59D-08
     A contracting polynomial of degree  3 produced  0.2410
 Iteration  28 EE= -1507.77602234773     Delta-E=       -0.000000018530 Grad=4.188D-04 Max rot=    0.0084 deg.
 QCNR:  CnvC1=2.16D-09 CnvC2=2.16D-08
 LinEq1:  Iter=  0 NonCon=     1 RMS=5.02D-06 Max=3.20D-05 NDo=     1
 LinEq1:  Iter=  1 NonCon=     1 RMS=1.50D-06 Max=1.11D-05 NDo=     1
 LinEq1:  Iter=  2 NonCon=     1 RMS=4.84D-07 Max=4.49D-06 NDo=     1
 LinEq1:  Iter=  3 NonCon=     1 RMS=1.79D-07 Max=2.17D-06 NDo=     1
 LinEq1:  Iter=  4 NonCon=     1 RMS=5.12D-08 Max=3.57D-07 NDo=     1
 LinEq1:  Iter=  5 NonCon=     1 RMS=2.21D-08 Max=2.23D-07 NDo=     1
 LinEq1:  Iter=  6 NonCon=     1 RMS=5.83D-09 Max=4.59D-08 NDo=     1
 LinEq1:  Iter=  7 NonCon=     0 RMS=1.58D-09 Max=2.09D-08 NDo=     1
 Linear equations converged to 2.159D-09 2.159D-08 after     7 iterations.
 Angle between quadratic step and gradient=  89.33 degrees.
     ILin= 1 X=0.000D+00 Y=-1.507776022348D+03 DE= 0.00D+00 F= -3.29D-07
     ILin= 2 X=1.000D+00 Y=-1.507776022416D+03 DE=-6.82D-08 F=  2.49D-07
     Accept linear search using points  1 and  2.
     An  expanding polynomial of degree  2 produced  0.6379
 Iteration  29 EE= -1507.77602245952     Delta-E=       -0.000000111785 Grad=3.430D-04 Max rot=    0.0097 deg.
 QCNR:  CnvC1=2.16D-09 CnvC2=2.16D-08
 LinEq1:  Iter=  0 NonCon=     1 RMS=8.14D-06 Max=1.06D-04 NDo=     1
 LinEq1:  Iter=  1 NonCon=     1 RMS=2.53D-06 Max=2.01D-05 NDo=     1
 LinEq1:  Iter=  2 NonCon=     1 RMS=7.39D-07 Max=6.29D-06 NDo=     1
 LinEq1:  Iter=  3 NonCon=     1 RMS=2.92D-07 Max=2.66D-06 NDo=     1
 LinEq1:  Iter=  4 NonCon=     1 RMS=1.39D-07 Max=1.11D-06 NDo=     1
 LinEq1:  Iter=  5 NonCon=     1 RMS=5.85D-08 Max=6.21D-07 NDo=     1
 LinEq1:  Iter=  6 NonCon=     1 RMS=1.78D-08 Max=1.83D-07 NDo=     1
 LinEq1:  Iter=  7 NonCon=     1 RMS=3.06D-09 Max=2.12D-08 NDo=     1
 LinEq1:  Iter=  8 NonCon=     0 RMS=2.65D-10 Max=3.31D-09 NDo=     1
 Linear equations converged to 2.159D-09 2.159D-08 after     8 iterations.
 Angle between quadratic step and gradient=  89.23 degrees.
     ILin= 1 X=0.000D+00 Y=-1.507776022460D+03 DE= 0.00D+00 F= -3.78D-05
     ILin= 2 X=3.000D-01 Y=-1.507769632694D+03 DE= 6.39D-03 F=  7.08D-02
     ILin= 3 X=2.000D-01 Y=-1.507774482405D+03 DE= 1.54D-03 F=  2.80D-02
     ILin= 4 X=1.525D-01 Y=-1.507775452891D+03 DE= 5.70D-04 F=  1.37D-02
     ILin= 5 X=1.078D-01 Y=-1.507775861271D+03 DE= 1.61D-04 F=  5.37D-03
     ILin= 6 X=7.623D-02 Y=-1.507775974879D+03 DE= 4.76D-05 F=  2.15D-03
     ILin= 7 X=5.390D-02 Y=-1.507776007569D+03 DE= 1.49D-05 F=  9.01D-04
     ILin= 8 X=3.811D-02 Y=-1.507776017525D+03 DE= 4.93D-06 F=  4.05D-04
     ILin= 9 X=2.695D-02 Y=-1.507776020799D+03 DE= 1.66D-06 F=  1.98D-04
     ILin=10 X=1.906D-02 Y=-1.507776021960D+03 DE= 5.00D-07 F=  1.02D-04
     Reject lnstep minimum 1.167D-02 FVal=-1.507776038960D+03 Lims=  0.00D+00  2.70D-02
     ILin=11 X=1.167D-02 Y=-1.507776022467D+03 DE=-7.55D-09 F=  3.86D-05
     A contracting polynomial of degree 11 produced  0.0060
 Iteration  30 EE= -1507.77602257347     Delta-E=       -0.000000113946 Grad=9.363D-04 Max rot=    0.0197 deg.
 QCNR:  CnvC1=2.16D-09 CnvC2=2.16D-08
 LinEq1:  Iter=  0 NonCon=     1 RMS=1.15D-05 Max=1.60D-04 NDo=     1
 LinEq1:  Iter=  1 NonCon=     1 RMS=3.95D-06 Max=5.34D-05 NDo=     1
 LinEq1:  Iter=  2 NonCon=     1 RMS=1.00D-06 Max=1.06D-05 NDo=     1
 LinEq1:  Iter=  3 NonCon=     1 RMS=3.20D-07 Max=2.17D-06 NDo=     1
 LinEq1:  Iter=  4 NonCon=     1 RMS=1.46D-07 Max=1.58D-06 NDo=     1
 LinEq1:  Iter=  5 NonCon=     1 RMS=7.16D-08 Max=8.82D-07 NDo=     1
 LinEq1:  Iter=  6 NonCon=     1 RMS=3.43D-08 Max=2.84D-07 NDo=     1
 LinEq1:  Iter=  7 NonCon=     1 RMS=6.57D-09 Max=6.41D-08 NDo=     1
 LinEq1:  Iter=  8 NonCon=     0 RMS=1.06D-09 Max=1.10D-08 NDo=     1
 Linear equations converged to 2.159D-09 2.159D-08 after     8 iterations.
 Angle between quadratic step and gradient=  88.77 degrees.
     ILin= 1 X=0.000D+00 Y=-1.507776022573D+03 DE= 0.00D+00 F= -6.42D-07
     ILin= 2 X=1.000D+00 Y=-1.507776022560D+03 DE= 1.35D-08 F=  6.71D-07
     Reject lnstep minimum 4.901D-01 FVal=-1.507776022731D+03 Lims=  0.00D+00  1.00D+00
     ILin= 3 X=5.000D-01 Y=-1.507776022731D+03 DE=-1.57D-07 F=  1.30D-08
     A contracting polynomial of degree  3 produced  0.4897
     Minimum is close to point  3 DX= -1.03D-02 DF= -6.93D-11 DXR=  2.09D-02 DFR=  4.41D-04 which will be used.
 Iteration  31 EE= -1507.77602273081     Delta-E=       -0.000000157342 Grad=7.374D-04 Max rot=    0.0230 deg.
 QCNR:  CnvC1=2.16D-09 CnvC2=2.16D-08
 LinEq1:  Iter=  0 NonCon=     1 RMS=9.50D-06 Max=8.15D-05 NDo=     1
 LinEq1:  Iter=  1 NonCon=     1 RMS=2.62D-06 Max=3.13D-05 NDo=     1
 LinEq1:  Iter=  2 NonCon=     1 RMS=8.59D-07 Max=9.26D-06 NDo=     1
 LinEq1:  Iter=  3 NonCon=     1 RMS=4.09D-07 Max=3.13D-06 NDo=     1
 LinEq1:  Iter=  4 NonCon=     1 RMS=1.74D-07 Max=2.16D-06 NDo=     1
 LinEq1:  Iter=  5 NonCon=     1 RMS=5.12D-08 Max=6.75D-07 NDo=     1
 LinEq1:  Iter=  6 NonCon=     1 RMS=1.29D-08 Max=7.38D-08 NDo=     1
 LinEq1:  Iter=  7 NonCon=     0 RMS=1.77D-09 Max=2.14D-08 NDo=     1
 Linear equations converged to 2.159D-09 2.159D-08 after     7 iterations.
 Angle between quadratic step and gradient=  88.01 degrees.
     ILin= 1 X=0.000D+00 Y=-1.507776022731D+03 DE= 0.00D+00 F= -3.88D-07
     ILin= 2 X=1.000D+00 Y=-1.507776022667D+03 DE= 6.43D-08 F=  5.15D-07
     Reject lnstep minimum 4.284D-01 FVal=-1.507776022814D+03 Lims=  0.00D+00  1.00D+00
     ILin= 3 X=4.000D-01 Y=-1.507776022814D+03 DE=-8.27D-08 F= -2.57D-08
     A contracting polynomial of degree  3 produced  0.4289
     Minimum is close to point  3 DX=  2.89D-02 DF= -3.76D-10 DXR=  6.73D-02 DFR=  4.55D-03 which will be used.
 Iteration  32 EE= -1507.77602281353     Delta-E=       -0.000000082726 Grad=6.179D-04 Max rot=    0.0108 deg.
 QCNR:  CnvC1=2.16D-09 CnvC2=2.16D-08
 LinEq1:  Iter=  0 NonCon=     1 RMS=7.75D-06 Max=5.83D-05 NDo=     1
 LinEq1:  Iter=  1 NonCon=     1 RMS=2.00D-06 Max=1.45D-05 NDo=     1
 LinEq1:  Iter=  2 NonCon=     1 RMS=7.14D-07 Max=6.90D-06 NDo=     1
 LinEq1:  Iter=  3 NonCon=     1 RMS=2.91D-07 Max=2.05D-06 NDo=     1
 LinEq1:  Iter=  4 NonCon=     1 RMS=1.21D-07 Max=1.41D-06 NDo=     1
 LinEq1:  Iter=  5 NonCon=     1 RMS=6.36D-08 Max=6.59D-07 NDo=     1
 LinEq1:  Iter=  6 NonCon=     1 RMS=3.40D-08 Max=3.17D-07 NDo=     1
 LinEq1:  Iter=  7 NonCon=     1 RMS=3.96D-09 Max=5.04D-08 NDo=     1
 LinEq1:  Iter=  8 NonCon=     0 RMS=6.01D-10 Max=7.79D-09 NDo=     1
 Linear equations converged to 2.159D-09 2.159D-08 after     8 iterations.
 Angle between quadratic step and gradient=  89.35 degrees.
     ILin= 1 X=0.000D+00 Y=-1.507776022814D+03 DE= 0.00D+00 F= -7.45D-07
     ILin= 2 X=1.000D+00 Y=-1.507776022122D+03 DE= 6.91D-07 F=  2.29D-06
     Reject lnstep minimum 2.774D-01 FVal=-1.507776022918D+03 Lims=  0.00D+00  1.00D+00
     ILin= 3 X=3.000D-01 Y=-1.507776022917D+03 DE=-1.03D-07 F=  6.62D-08
     A contracting polynomial of degree  3 produced  0.2665
 Iteration  33 EE= -1507.77602291766     Delta-E=       -0.000000104125 Grad=7.889D-04 Max rot=    0.0238 deg.
 QCNR:  CnvC1=2.16D-09 CnvC2=2.16D-08
 LinEq1:  Iter=  0 NonCon=     1 RMS=9.58D-06 Max=9.43D-05 NDo=     1
 LinEq1:  Iter=  1 NonCon=     1 RMS=2.04D-06 Max=2.08D-05 NDo=     1
 LinEq1:  Iter=  2 NonCon=     1 RMS=6.33D-07 Max=7.48D-06 NDo=     1
 LinEq1:  Iter=  3 NonCon=     1 RMS=2.77D-07 Max=1.96D-06 NDo=     1
 LinEq1:  Iter=  4 NonCon=     1 RMS=1.43D-07 Max=1.75D-06 NDo=     1
 LinEq1:  Iter=  5 NonCon=     1 RMS=5.94D-08 Max=4.95D-07 NDo=     1
 LinEq1:  Iter=  6 NonCon=     1 RMS=3.14D-08 Max=2.59D-07 NDo=     1
 LinEq1:  Iter=  7 NonCon=     1 RMS=5.89D-09 Max=6.84D-08 NDo=     1
 LinEq1:  Iter=  8 NonCon=     0 RMS=1.23D-09 Max=1.41D-08 NDo=     1
 Linear equations converged to 2.159D-09 2.159D-08 after     8 iterations.
 Angle between quadratic step and gradient=  89.11 degrees.
     ILin= 1 X=0.000D+00 Y=-1.507776022918D+03 DE= 0.00D+00 F= -7.85D-07
     ILin= 2 X=1.000D+00 Y=-1.507776021294D+03 DE= 1.62D-06 F=  4.00D-06
     Reject lnstep minimum 1.611D-01 FVal=-1.507776022981D+03 Lims=  0.00D+00  1.00D+00
     ILin= 3 X=2.000D-01 Y=-1.507776022977D+03 DE=-5.94D-08 F=  1.89D-07
     A contracting polynomial of degree  3 produced  0.1619
 Iteration  34 EE= -1507.77602298077     Delta-E=       -0.000000063111 Grad=8.286D-04 Max rot=    0.0158 deg.
 QCNR:  CnvC1=2.16D-09 CnvC2=2.16D-08
 LinEq1:  Iter=  0 NonCon=     1 RMS=9.57D-06 Max=8.98D-05 NDo=     1
 LinEq1:  Iter=  1 NonCon=     1 RMS=2.09D-06 Max=2.62D-05 NDo=     1
 LinEq1:  Iter=  2 NonCon=     1 RMS=5.85D-07 Max=5.31D-06 NDo=     1
 LinEq1:  Iter=  3 NonCon=     1 RMS=2.69D-07 Max=2.04D-06 NDo=     1
 LinEq1:  Iter=  4 NonCon=     1 RMS=1.71D-07 Max=1.75D-06 NDo=     1
 LinEq1:  Iter=  5 NonCon=     1 RMS=3.20D-08 Max=5.33D-07 NDo=     1
 LinEq1:  Iter=  6 NonCon=     1 RMS=7.56D-09 Max=5.55D-08 NDo=     1
 LinEq1:  Iter=  7 NonCon=     0 RMS=1.60D-09 Max=1.17D-08 NDo=     1
 Linear equations converged to 2.159D-09 2.159D-08 after     7 iterations.
 Angle between quadratic step and gradient=  89.51 degrees.
     ILin= 1 X=0.000D+00 Y=-1.507776022981D+03 DE= 0.00D+00 F= -7.10D-07
     ILin= 2 X=1.000D+00 Y=-1.507776020471D+03 DE= 2.51D-06 F=  5.68D-06
     Reject lnstep minimum 1.088D-01 FVal=-1.507776023019D+03 Lims=  0.00D+00  1.00D+00
     ILin= 3 X=1.000D-01 Y=-1.507776023019D+03 DE=-3.82D-08 F= -5.53D-08
     A contracting polynomial of degree  3 produced  0.1094
     Minimum is close to point  3 DX=  9.41D-03 DF= -2.85D-10 DXR=  8.60D-02 DFR=  7.46D-03 which will be used.
 Iteration  35 EE= -1507.77602301894     Delta-E=       -0.000000038173 Grad=9.041D-04 Max rot=    0.0183 deg.
 QCNR:  CnvC1=2.16D-09 CnvC2=2.16D-08
 LinEq1:  Iter=  0 NonCon=     1 RMS=1.00D-05 Max=1.01D-04 NDo=     1
 LinEq1:  Iter=  1 NonCon=     1 RMS=2.35D-06 Max=2.77D-05 NDo=     1
 LinEq1:  Iter=  2 NonCon=     1 RMS=7.86D-07 Max=5.61D-06 NDo=     1
 LinEq1:  Iter=  3 NonCon=     1 RMS=3.23D-07 Max=3.32D-06 NDo=     1
 LinEq1:  Iter=  4 NonCon=     1 RMS=1.35D-07 Max=1.55D-06 NDo=     1
 LinEq1:  Iter=  5 NonCon=     1 RMS=5.66D-08 Max=4.59D-07 NDo=     1
 LinEq1:  Iter=  6 NonCon=     1 RMS=2.08D-08 Max=3.74D-07 NDo=     1
 LinEq1:  Iter=  7 NonCon=     1 RMS=3.76D-09 Max=2.74D-08 NDo=     1
 LinEq1:  Iter=  8 NonCon=     0 RMS=3.57D-10 Max=2.56D-09 NDo=     1
 Linear equations converged to 2.159D-09 2.159D-08 after     8 iterations.
 Angle between quadratic step and gradient=  89.57 degrees.
     ILin= 1 X=0.000D+00 Y=-1.507776023019D+03 DE= 0.00D+00 F= -3.93D-06
     ILin= 2 X=1.000D+00 Y=-1.507775990240D+03 DE= 3.28D-05 F=  1.10D-04
     Reject lnstep minimum 1.553D-01 FVal=-1.507776023362D+03 Lims=  0.00D+00  1.00D+00
     ILin= 3 X=2.000D-01 Y=-1.507776023303D+03 DE=-2.84D-07 F=  1.83D-06
     A contracting polynomial of degree  3 produced  0.1166
 Iteration  36 EE= -1507.77602332610     Delta-E=       -0.000000307160 Grad=1.248D-03 Max rot=    0.0370 deg.
 QCNR:  CnvC1=2.16D-09 CnvC2=2.16D-08
 LinEq1:  Iter=  0 NonCon=     1 RMS=1.23D-05 Max=1.41D-04 NDo=     1
 LinEq1:  Iter=  1 NonCon=     1 RMS=2.47D-06 Max=2.69D-05 NDo=     1
 LinEq1:  Iter=  2 NonCon=     1 RMS=8.42D-07 Max=6.22D-06 NDo=     1
 LinEq1:  Iter=  3 NonCon=     1 RMS=3.58D-07 Max=3.11D-06 NDo=     1
 LinEq1:  Iter=  4 NonCon=     1 RMS=1.69D-07 Max=1.92D-06 NDo=     1
 LinEq1:  Iter=  5 NonCon=     1 RMS=7.82D-08 Max=5.46D-07 NDo=     1
 LinEq1:  Iter=  6 NonCon=     1 RMS=3.38D-08 Max=4.83D-07 NDo=     1
 LinEq1:  Iter=  7 NonCon=     1 RMS=7.67D-09 Max=5.96D-08 NDo=     1
 LinEq1:  Iter=  8 NonCon=     0 RMS=1.19D-09 Max=1.45D-08 NDo=     1
 Linear equations converged to 2.159D-09 2.159D-08 after     8 iterations.
 Angle between quadratic step and gradient=  89.42 degrees.
     ILin= 1 X=0.000D+00 Y=-1.507776023326D+03 DE= 0.00D+00 F= -1.70D-06
     ILin= 2 X=1.000D+00 Y=-1.507776017996D+03 DE= 5.33D-06 F=  1.21D-05
     Reject lnstep minimum 1.170D-01 FVal=-1.507776023425D+03 Lims=  0.00D+00  1.00D+00
     ILin= 3 X=1.000D-01 Y=-1.507776023423D+03 DE=-9.68D-08 F= -2.40D-07
     A contracting polynomial of degree  3 produced  0.1192
 Iteration  37 EE= -1507.77602342484     Delta-E=       -0.000000098737 Grad=1.240D-03 Max rot=    0.0250 deg.
 QCNR:  CnvC1=2.16D-09 CnvC2=2.16D-08
 LinEq1:  Iter=  0 NonCon=     1 RMS=1.28D-05 Max=1.38D-04 NDo=     1
 LinEq1:  Iter=  1 NonCon=     1 RMS=2.62D-06 Max=3.15D-05 NDo=     1
 LinEq1:  Iter=  2 NonCon=     1 RMS=7.63D-07 Max=5.71D-06 NDo=     1
 LinEq1:  Iter=  3 NonCon=     1 RMS=3.32D-07 Max=3.49D-06 NDo=     1
 LinEq1:  Iter=  4 NonCon=     1 RMS=1.94D-07 Max=2.21D-06 NDo=     1
 LinEq1:  Iter=  5 NonCon=     1 RMS=7.33D-08 Max=4.79D-07 NDo=     1
 LinEq1:  Iter=  6 NonCon=     1 RMS=1.29D-08 Max=1.54D-07 NDo=     1
 LinEq1:  Iter=  7 NonCon=     1 RMS=3.44D-09 Max=4.98D-08 NDo=     1
 LinEq1:  Iter=  8 NonCon=     0 RMS=6.13D-10 Max=8.53D-09 NDo=     1
 Linear equations converged to 2.159D-09 2.159D-08 after     8 iterations.
 Angle between quadratic step and gradient=  89.45 degrees.
     ILin= 1 X=0.000D+00 Y=-1.507776023425D+03 DE= 0.00D+00 F= -1.09D-06
     ILin= 2 X=1.000D+00 Y=-1.507776023723D+03 DE=-2.98D-07 F=  5.67D-07
     Accept linear search using points  1 and  2.
     An  expanding polynomial of degree  2 produced  0.6862
 Iteration  38 EE= -1507.77602381077     Delta-E=       -0.000000385933 Grad=1.039D-03 Max rot=    0.0367 deg.
 QCNR:  CnvC1=2.16D-09 CnvC2=2.16D-08
 LinEq1:  Iter=  0 NonCon=     1 RMS=1.30D-05 Max=1.51D-04 NDo=     1
 LinEq1:  Iter=  1 NonCon=     1 RMS=2.67D-06 Max=2.34D-05 NDo=     1
 LinEq1:  Iter=  2 NonCon=     1 RMS=7.90D-07 Max=8.87D-06 NDo=     1
 LinEq1:  Iter=  3 NonCon=     1 RMS=2.68D-07 Max=2.06D-06 NDo=     1
 LinEq1:  Iter=  4 NonCon=     1 RMS=1.36D-07 Max=1.71D-06 NDo=     1
 LinEq1:  Iter=  5 NonCon=     1 RMS=5.80D-08 Max=5.91D-07 NDo=     1
 LinEq1:  Iter=  6 NonCon=     1 RMS=2.70D-08 Max=1.75D-07 NDo=     1
 LinEq1:  Iter=  7 NonCon=     1 RMS=6.12D-09 Max=7.12D-08 NDo=     1
 LinEq1:  Iter=  8 NonCon=     0 RMS=1.54D-09 Max=1.29D-08 NDo=     1
 Linear equations converged to 2.159D-09 2.159D-08 after     8 iterations.
 Angle between quadratic step and gradient=  88.38 degrees.
     ILin= 1 X=0.000D+00 Y=-1.507776023811D+03 DE= 0.00D+00 F= -7.30D-07
     ILin= 2 X=1.000D+00 Y=-1.507776023514D+03 DE= 2.97D-07 F=  1.32D-06
     Reject lnstep minimum 3.546D-01 FVal=-1.507776023940D+03 Lims=  0.00D+00  1.00D+00
     ILin= 3 X=4.000D-01 Y=-1.507776023938D+03 DE=-1.27D-07 F=  9.33D-08
     A contracting polynomial of degree  3 produced  0.3551
 Iteration  39 EE= -1507.77602394015     Delta-E=       -0.000000129376 Grad=9.268D-04 Max rot=    0.0146 deg.
 QCNR:  CnvC1=2.16D-09 CnvC2=2.16D-08
 LinEq1:  Iter=  0 NonCon=     1 RMS=1.04D-05 Max=9.14D-05 NDo=     1
 LinEq1:  Iter=  1 NonCon=     1 RMS=2.47D-06 Max=2.48D-05 NDo=     1
 LinEq1:  Iter=  2 NonCon=     1 RMS=7.24D-07 Max=8.43D-06 NDo=     1
 LinEq1:  Iter=  3 NonCon=     1 RMS=3.18D-07 Max=2.50D-06 NDo=     1
 LinEq1:  Iter=  4 NonCon=     1 RMS=1.65D-07 Max=2.00D-06 NDo=     1
 LinEq1:  Iter=  5 NonCon=     1 RMS=6.72D-08 Max=5.91D-07 NDo=     1
 LinEq1:  Iter=  6 NonCon=     1 RMS=3.74D-08 Max=3.59D-07 NDo=     1
 LinEq1:  Iter=  7 NonCon=     1 RMS=4.40D-09 Max=7.16D-08 NDo=     1
 LinEq1:  Iter=  8 NonCon=     0 RMS=5.98D-10 Max=4.59D-09 NDo=     1
 Linear equations converged to 2.159D-09 2.159D-08 after     8 iterations.
 Angle between quadratic step and gradient=  89.61 degrees.
     ILin= 1 X=0.000D+00 Y=-1.507776023940D+03 DE= 0.00D+00 F= -3.20D-06
     ILin= 2 X=1.000D+00 Y=-1.507775949612D+03 DE= 7.43D-05 F=  1.55D-04
     Reject lnstep minimum 2.136D-02 FVal=-1.507776023974D+03 Lims=  0.00D+00  1.00D+00
     ILin= 3 X=2.136D-02 Y=-1.507776023971D+03 DE=-3.08D-08 F=  3.04D-07
     A contracting polynomial of degree  3 produced  0.0200
     Minimum is close to point  3 DX= -1.36D-03 DF= -1.43D-10 DXR=  6.80D-02 DFR=  4.65D-03 which will be used.
 Iteration  40 EE= -1507.77602397098     Delta-E=       -0.000000030829 Grad=1.030D-03 Max rot=    0.0195 deg.
 QCNR:  CnvC1=2.16D-09 CnvC2=2.16D-08
 LinEq1:  Iter=  0 NonCon=     1 RMS=1.08D-05 Max=9.70D-05 NDo=     1
 LinEq1:  Iter=  1 NonCon=     1 RMS=2.50D-06 Max=2.80D-05 NDo=     1
 LinEq1:  Iter=  2 NonCon=     1 RMS=6.93D-07 Max=7.48D-06 NDo=     1
 LinEq1:  Iter=  3 NonCon=     1 RMS=3.12D-07 Max=2.53D-06 NDo=     1
 LinEq1:  Iter=  4 NonCon=     1 RMS=1.72D-07 Max=1.58D-06 NDo=     1
 LinEq1:  Iter=  5 NonCon=     1 RMS=6.36D-08 Max=5.37D-07 NDo=     1
 LinEq1:  Iter=  6 NonCon=     1 RMS=3.51D-08 Max=3.41D-07 NDo=     1
 LinEq1:  Iter=  7 NonCon=     1 RMS=4.32D-09 Max=4.24D-08 NDo=     1
 LinEq1:  Iter=  8 NonCon=     0 RMS=7.38D-10 Max=1.05D-08 NDo=     1
 Linear equations converged to 2.159D-09 2.159D-08 after     8 iterations.
 Angle between quadratic step and gradient=  89.06 degrees.
     ILin= 1 X=0.000D+00 Y=-1.507776023971D+03 DE= 0.00D+00 F= -5.81D-07
     ILin= 2 X=1.000D+00 Y=-1.507776024087D+03 DE=-1.16D-07 F=  3.55D-07
     Accept linear search using points  1 and  2.
     An  expanding polynomial of degree  2 produced  0.6246
 Iteration  41 EE= -1507.77602415302     Delta-E=       -0.000000182040 Grad=7.585D-04 Max rot=    0.0265 deg.
 QCNR:  CnvC1=2.16D-09 CnvC2=2.16D-08
 LinEq1:  Iter=  0 NonCon=     1 RMS=8.00D-06 Max=8.78D-05 NDo=     1
 LinEq1:  Iter=  1 NonCon=     1 RMS=1.70D-06 Max=1.68D-05 NDo=     1
 LinEq1:  Iter=  2 NonCon=     1 RMS=3.58D-07 Max=4.26D-06 NDo=     1
 LinEq1:  Iter=  3 NonCon=     1 RMS=1.72D-07 Max=1.62D-06 NDo=     1
 LinEq1:  Iter=  4 NonCon=     1 RMS=1.01D-07 Max=1.20D-06 NDo=     1
 LinEq1:  Iter=  5 NonCon=     1 RMS=2.34D-08 Max=1.85D-07 NDo=     1
 LinEq1:  Iter=  6 NonCon=     1 RMS=7.53D-09 Max=8.03D-08 NDo=     1
 LinEq1:  Iter=  7 NonCon=     1 RMS=2.62D-09 Max=2.34D-08 NDo=     1
 LinEq1:  Iter=  8 NonCon=     0 RMS=9.44D-10 Max=6.97D-09 NDo=     1
 Linear equations converged to 2.159D-09 2.159D-08 after     8 iterations.
 Angle between quadratic step and gradient=  89.19 degrees.
     ILin= 1 X=0.000D+00 Y=-1.507776024153D+03 DE= 0.00D+00 F= -4.72D-07
     ILin= 2 X=1.000D+00 Y=-1.507776023833D+03 DE= 3.20D-07 F=  1.11D-06
     Reject lnstep minimum 2.969D-01 FVal=-1.507776024223D+03 Lims=  0.00D+00  1.00D+00
     ILin= 3 X=3.000D-01 Y=-1.507776024223D+03 DE=-7.00D-08 F=  4.94D-09
     A contracting polynomial of degree  3 produced  0.2975
     Minimum is close to point  3 DX= -2.50D-03 DF= -5.00D-12 DXR=  8.39D-03 DFR=  7.15D-05 which will be used.
 Iteration  42 EE= -1507.77602422298     Delta-E=       -0.000000069964 Grad=7.224D-04 Max rot=    0.0146 deg.
 QCNR:  CnvC1=2.16D-09 CnvC2=2.16D-08
 LinEq1:  Iter=  0 NonCon=     1 RMS=7.88D-06 Max=7.59D-05 NDo=     1
 LinEq1:  Iter=  1 NonCon=     1 RMS=2.37D-06 Max=2.53D-05 NDo=     1
 LinEq1:  Iter=  2 NonCon=     1 RMS=8.20D-07 Max=8.21D-06 NDo=     1
 LinEq1:  Iter=  3 NonCon=     1 RMS=3.16D-07 Max=2.74D-06 NDo=     1
 LinEq1:  Iter=  4 NonCon=     1 RMS=1.22D-07 Max=1.33D-06 NDo=     1
 LinEq1:  Iter=  5 NonCon=     1 RMS=6.53D-08 Max=4.70D-07 NDo=     1
 LinEq1:  Iter=  6 NonCon=     1 RMS=3.27D-08 Max=3.29D-07 NDo=     1
 LinEq1:  Iter=  7 NonCon=     1 RMS=1.90D-09 Max=2.70D-08 NDo=     1
 LinEq1:  Iter=  8 NonCon=     0 RMS=1.95D-10 Max=2.29D-09 NDo=     1
 Linear equations converged to 2.159D-09 2.159D-08 after     8 iterations.
 Angle between quadratic step and gradient=  89.58 degrees.
     ILin= 1 X=0.000D+00 Y=-1.507776024223D+03 DE= 0.00D+00 F= -9.71D-07
     ILin= 2 X=1.000D+00 Y=-1.507776023473D+03 DE= 7.50D-07 F=  2.64D-06
     Reject lnstep minimum 2.976D-01 FVal=-1.507776024370D+03 Lims=  0.00D+00  1.00D+00
     ILin= 3 X=3.000D-01 Y=-1.507776024365D+03 DE=-1.42D-07 F=  2.69D-08
     A contracting polynomial of degree  3 produced  0.2852
     Minimum is close to point  3 DX= -1.48D-02 DF= -3.83D-10 DXR=  5.20D-02 DFR=  2.71D-03 which will be used.
 Iteration  43 EE= -1507.77602436459     Delta-E=       -0.000000141606 Grad=9.458D-04 Max rot=    0.0211 deg.
 QCNR:  CnvC1=2.16D-09 CnvC2=2.16D-08
 LinEq1:  Iter=  0 NonCon=     1 RMS=9.10D-06 Max=6.76D-05 NDo=     1
 LinEq1:  Iter=  1 NonCon=     1 RMS=2.13D-06 Max=1.81D-05 NDo=     1
 LinEq1:  Iter=  2 NonCon=     1 RMS=6.80D-07 Max=7.26D-06 NDo=     1
 LinEq1:  Iter=  3 NonCon=     1 RMS=2.82D-07 Max=2.91D-06 NDo=     1
 LinEq1:  Iter=  4 NonCon=     1 RMS=8.41D-08 Max=6.57D-07 NDo=     1
 LinEq1:  Iter=  5 NonCon=     1 RMS=3.58D-08 Max=2.45D-07 NDo=     1
 LinEq1:  Iter=  6 NonCon=     1 RMS=2.32D-08 Max=2.15D-07 NDo=     1
 LinEq1:  Iter=  7 NonCon=     1 RMS=6.04D-09 Max=4.30D-08 NDo=     1
 LinEq1:  Iter=  8 NonCon=     0 RMS=1.19D-09 Max=1.45D-08 NDo=     1
 Linear equations converged to 2.159D-09 2.159D-08 after     8 iterations.
 Angle between quadratic step and gradient=  85.25 degrees.
     ILin= 1 X=0.000D+00 Y=-1.507776024365D+03 DE= 0.00D+00 F= -3.23D-07
     ILin= 2 X=1.000D+00 Y=-1.507776024501D+03 DE=-1.37D-07 F=  4.97D-08
     Accept linear search using points  1 and  2.
     An  expanding polynomial of degree  2 produced  0.8667
 Iteration  44 EE= -1507.77602450463     Delta-E=       -0.000000140047 Grad=3.097D-04 Max rot=    0.0082 deg.
 QCNR:  CnvC1=2.16D-09 CnvC2=2.16D-08
 LinEq1:  Iter=  0 NonCon=     1 RMS=3.41D-06 Max=2.98D-05 NDo=     1
 LinEq1:  Iter=  1 NonCon=     1 RMS=7.96D-07 Max=6.37D-06 NDo=     1
 LinEq1:  Iter=  2 NonCon=     1 RMS=2.10D-07 Max=2.58D-06 NDo=     1
 LinEq1:  Iter=  3 NonCon=     1 RMS=1.28D-07 Max=1.25D-06 NDo=     1
 LinEq1:  Iter=  4 NonCon=     1 RMS=6.67D-08 Max=6.28D-07 NDo=     1
 LinEq1:  Iter=  5 NonCon=     1 RMS=1.45D-08 Max=1.02D-07 NDo=     1
 LinEq1:  Iter=  6 NonCon=     1 RMS=4.78D-09 Max=4.93D-08 NDo=     1
 LinEq1:  Iter=  7 NonCon=     0 RMS=1.32D-09 Max=1.85D-08 NDo=     1
 Linear equations converged to 2.159D-09 2.159D-08 after     7 iterations.
 Angle between quadratic step and gradient=  89.06 degrees.
     ILin= 1 X=0.000D+00 Y=-1.507776024505D+03 DE= 0.00D+00 F= -6.82D-08
     ILin= 2 X=1.000D+00 Y=-1.507776024528D+03 DE=-2.36D-08 F=  2.11D-08
     Accept linear search using points  1 and  2.
     An  expanding polynomial of degree  2 produced  0.7645
 Iteration  45 EE= -1507.77602453073     Delta-E=       -0.000000026100 Grad=2.671D-04 Max rot=    0.0057 deg.
 QCNR:  CnvC1=2.16D-09 CnvC2=2.16D-08
 LinEq1:  Iter=  0 NonCon=     1 RMS=2.94D-06 Max=3.63D-05 NDo=     1
 LinEq1:  Iter=  1 NonCon=     1 RMS=1.15D-06 Max=1.31D-05 NDo=     1
 LinEq1:  Iter=  2 NonCon=     1 RMS=2.93D-07 Max=2.45D-06 NDo=     1
 LinEq1:  Iter=  3 NonCon=     1 RMS=9.93D-08 Max=1.05D-06 NDo=     1
 LinEq1:  Iter=  4 NonCon=     1 RMS=2.53D-08 Max=2.77D-07 NDo=     1
 LinEq1:  Iter=  5 NonCon=     1 RMS=1.14D-08 Max=7.90D-08 NDo=     1
 LinEq1:  Iter=  6 NonCon=     1 RMS=6.62D-09 Max=7.61D-08 NDo=     1
 LinEq1:  Iter=  7 NonCon=     0 RMS=7.90D-10 Max=6.27D-09 NDo=     1
 Linear equations converged to 2.159D-09 2.159D-08 after     7 iterations.
 Angle between quadratic step and gradient=  88.49 degrees.
     ILin= 1 X=0.000D+00 Y=-1.507776024531D+03 DE= 0.00D+00 F= -5.15D-08
     ILin= 2 X=1.000D+00 Y=-1.507776024521D+03 DE= 1.00D-08 F=  7.15D-08
     Reject lnstep minimum 4.186D-01 FVal=-1.507776024542D+03 Lims=  0.00D+00  1.00D+00
     ILin= 3 X=4.000D-01 Y=-1.507776024541D+03 DE=-1.07D-08 F= -2.29D-09
     A contracting polynomial of degree  3 produced  0.4186
     Minimum is close to point  3 DX=  1.86D-02 DF= -2.11D-11 DXR=  4.45D-02 DFR=  1.97D-03 which will be used.
 Iteration  46 EE= -1507.77602454148     Delta-E=       -0.000000010750 Grad=2.606D-04 Max rot=    0.0056 deg.
 QCNR:  CnvC1=2.16D-09 CnvC2=2.16D-08
 LinEq1:  Iter=  0 NonCon=     1 RMS=2.55D-06 Max=1.80D-05 NDo=     1
 LinEq1:  Iter=  1 NonCon=     1 RMS=9.38D-07 Max=1.04D-05 NDo=     1
 LinEq1:  Iter=  2 NonCon=     1 RMS=3.23D-07 Max=2.63D-06 NDo=     1
 LinEq1:  Iter=  3 NonCon=     1 RMS=1.71D-07 Max=1.31D-06 NDo=     1
 LinEq1:  Iter=  4 NonCon=     1 RMS=6.49D-08 Max=4.50D-07 NDo=     1
 LinEq1:  Iter=  5 NonCon=     1 RMS=3.09D-08 Max=3.11D-07 NDo=     1
 LinEq1:  Iter=  6 NonCon=     1 RMS=1.13D-08 Max=8.25D-08 NDo=     1
 LinEq1:  Iter=  7 NonCon=     0 RMS=1.60D-09 Max=1.13D-08 NDo=     1
 Linear equations converged to 2.159D-09 2.159D-08 after     7 iterations.
 Angle between quadratic step and gradient=  87.45 degrees.
     ILin= 1 X=0.000D+00 Y=-1.507776024541D+03 DE= 0.00D+00 F= -2.84D-08
     ILin= 2 X=1.000D+00 Y=-1.507776024541D+03 DE= 1.66D-10 F=  2.87D-08
 QCLLim returned failure.
     ILin= 3 X=2.000D+00 Y=-1.507776024484D+03 DE= 5.74D-08 F=  8.58D-08
 QCLLim is confused:  Bigger=T Turned=T
 NLin=  3 IMin12=  1  2 I12=  0  2 IX=  1 XLMin= 0.000D+00 XLMax= 0.000D+00
 X = 0.000D+00 1.000D+00 2.000D+00
 DE= 0.000D+00 1.655D-10 5.743D-08
     An  expanding polynomial of degree  3 produced  0.4971
 Iteration  47 EE= -1507.77602454854     Delta-E=       -0.000000007056 Grad=2.247D-04 Max rot=    0.0049 deg.
 QCNR:  CnvC1=2.16D-09 CnvC2=2.16D-08
 LinEq1:  Iter=  0 NonCon=     1 RMS=1.87D-06 Max=1.19D-05 NDo=     1
 LinEq1:  Iter=  1 NonCon=     1 RMS=5.84D-07 Max=4.98D-06 NDo=     1
 LinEq1:  Iter=  2 NonCon=     1 RMS=2.04D-07 Max=1.37D-06 NDo=     1
 LinEq1:  Iter=  3 NonCon=     1 RMS=1.09D-07 Max=7.94D-07 NDo=     1
 LinEq1:  Iter=  4 NonCon=     1 RMS=4.72D-08 Max=3.24D-07 NDo=     1
 LinEq1:  Iter=  5 NonCon=     1 RMS=2.37D-08 Max=2.35D-07 NDo=     1
 LinEq1:  Iter=  6 NonCon=     1 RMS=5.73D-09 Max=4.93D-08 NDo=     1
 LinEq1:  Iter=  7 NonCon=     0 RMS=4.84D-10 Max=4.54D-09 NDo=     1
 Linear equations converged to 2.159D-09 2.159D-08 after     7 iterations.
 Angle between quadratic step and gradient=  88.99 degrees.
     ILin= 1 X=0.000D+00 Y=-1.507776024549D+03 DE= 0.00D+00 F= -4.24D-08
     ILin= 2 X=1.000D+00 Y=-1.507776024542D+03 DE= 6.37D-09 F=  5.52D-08
     Reject lnstep minimum 4.348D-01 FVal=-1.507776024558D+03 Lims=  0.00D+00  1.00D+00
     ILin= 3 X=4.000D-01 Y=-1.507776024558D+03 DE=-9.16D-09 F= -3.39D-09
     A contracting polynomial of degree  3 produced  0.4347
     Minimum is close to point  3 DX=  3.47D-02 DF= -5.87D-11 DXR=  7.99D-02 DFR=  6.40D-03 which will be used.
 Iteration  48 EE= -1507.77602455770     Delta-E=       -0.000000009162 Grad=2.215D-04 Max rot=    0.0052 deg.
 QCNR:  CnvC1=2.16D-09 CnvC2=2.16D-08
 LinEq1:  Iter=  0 NonCon=     1 RMS=2.06D-06 Max=1.53D-05 NDo=     1
 LinEq1:  Iter=  1 NonCon=     1 RMS=5.27D-07 Max=4.92D-06 NDo=     1
 LinEq1:  Iter=  2 NonCon=     1 RMS=1.69D-07 Max=1.63D-06 NDo=     1
 LinEq1:  Iter=  3 NonCon=     1 RMS=7.75D-08 Max=5.00D-07 NDo=     1
 LinEq1:  Iter=  4 NonCon=     1 RMS=3.23D-08 Max=2.77D-07 NDo=     1
 LinEq1:  Iter=  5 NonCon=     1 RMS=1.76D-08 Max=1.61D-07 NDo=     1
 LinEq1:  Iter=  6 NonCon=     1 RMS=7.78D-09 Max=6.89D-08 NDo=     1
 LinEq1:  Iter=  7 NonCon=     0 RMS=1.58D-09 Max=1.23D-08 NDo=     1
 Linear equations converged to 2.159D-09 2.159D-08 after     7 iterations.
 Angle between quadratic step and gradient=  87.44 degrees.
     ILin= 1 X=0.000D+00 Y=-1.507776024558D+03 DE= 0.00D+00 F= -2.04D-08
     ILin= 2 X=1.000D+00 Y=-1.507776024560D+03 DE=-2.60D-09 F=  1.52D-08
     Accept linear search using points  1 and  2.
     An  expanding polynomial of degree  2 produced  0.5728
 Iteration  49 EE= -1507.77602456356     Delta-E=       -0.000000005855 Grad=1.700D-04 Max rot=    0.0031 deg.
 QCNR:  CnvC1=1.70D-09 CnvC2=1.70D-08
 LinEq1:  Iter=  0 NonCon=     1 RMS=1.52D-06 Max=1.56D-05 NDo=     1
 LinEq1:  Iter=  1 NonCon=     1 RMS=4.08D-07 Max=4.97D-06 NDo=     1
 LinEq1:  Iter=  2 NonCon=     1 RMS=1.46D-07 Max=1.32D-06 NDo=     1
 LinEq1:  Iter=  3 NonCon=     1 RMS=7.96D-08 Max=6.91D-07 NDo=     1
 LinEq1:  Iter=  4 NonCon=     1 RMS=3.02D-08 Max=2.75D-07 NDo=     1
 LinEq1:  Iter=  5 NonCon=     1 RMS=9.93D-09 Max=9.67D-08 NDo=     1
 LinEq1:  Iter=  6 NonCon=     1 RMS=3.52D-09 Max=5.26D-08 NDo=     1
 LinEq1:  Iter=  7 NonCon=     0 RMS=5.12D-10 Max=3.87D-09 NDo=     1
 Linear equations converged to 1.700D-09 1.700D-08 after     7 iterations.
 Angle between quadratic step and gradient=  89.09 degrees.
     ILin= 1 X=0.000D+00 Y=-1.507776024564D+03 DE= 0.00D+00 F= -4.46D-08
     ILin= 2 X=1.000D+00 Y=-1.507776024503D+03 DE= 6.04D-08 F=  1.66D-07
     Reject lnstep minimum 2.124D-01 FVal=-1.507776024568D+03 Lims=  0.00D+00  1.00D+00
     ILin= 3 X=2.000D-01 Y=-1.507776024568D+03 DE=-4.72D-09 F= -2.60D-09
     A contracting polynomial of degree  3 produced  0.2123
     Minimum is close to point  3 DX=  1.23D-02 DF= -1.55D-11 DXR=  5.79D-02 DFR=  3.28D-03 which will be used.
 Iteration  50 EE= -1507.77602456827     Delta-E=       -0.000000004718 Grad=2.042D-04 Max rot=    0.0064 deg.
 QCNR:  CnvC1=2.04D-09 CnvC2=2.04D-08
 LinEq1:  Iter=  0 NonCon=     1 RMS=1.78D-06 Max=1.46D-05 NDo=     1
 LinEq1:  Iter=  1 NonCon=     1 RMS=4.35D-07 Max=5.35D-06 NDo=     1
 LinEq1:  Iter=  2 NonCon=     1 RMS=1.47D-07 Max=1.23D-06 NDo=     1
 LinEq1:  Iter=  3 NonCon=     1 RMS=7.30D-08 Max=6.19D-07 NDo=     1
 LinEq1:  Iter=  4 NonCon=     1 RMS=2.57D-08 Max=2.05D-07 NDo=     1
 LinEq1:  Iter=  5 NonCon=     1 RMS=1.29D-08 Max=1.12D-07 NDo=     1
 LinEq1:  Iter=  6 NonCon=     1 RMS=5.03D-09 Max=6.97D-08 NDo=     1
 LinEq1:  Iter=  7 NonCon=     0 RMS=1.32D-09 Max=1.00D-08 NDo=     1
 Linear equations converged to 2.042D-09 2.042D-08 after     7 iterations.
 Angle between quadratic step and gradient=  88.34 degrees.
     ILin= 1 X=0.000D+00 Y=-1.507776024568D+03 DE= 0.00D+00 F= -1.88D-08
     ILin= 2 X=1.000D+00 Y=-1.507776024568D+03 DE= 7.49D-10 F=  2.03D-08
 QCLLim returned failure.
     ILin= 3 X=2.000D+00 Y=-1.507776024528D+03 DE= 4.07D-08 F=  5.95D-08
 QCLLim is confused:  Bigger=T Turned=T
 NLin=  3 IMin12=  1  2 I12=  0  2 IX=  1 XLMin= 0.000D+00 XLMax= 0.000D+00
 X = 0.000D+00 1.000D+00 2.000D+00
 DE= 0.000D+00 7.485D-10 4.065D-08
     An  expanding polynomial of degree  3 produced  0.4809
 Iteration  51 EE= -1507.77602457280     Delta-E=       -0.000000004527 Grad=1.795D-04 Max rot=    0.0042 deg.
 QCNR:  CnvC1=1.80D-09 CnvC2=1.80D-08
 LinEq1:  Iter=  0 NonCon=     1 RMS=1.49D-06 Max=1.17D-05 NDo=     1
 LinEq1:  Iter=  1 NonCon=     1 RMS=4.10D-07 Max=3.95D-06 NDo=     1
 LinEq1:  Iter=  2 NonCon=     1 RMS=1.55D-07 Max=1.21D-06 NDo=     1
 LinEq1:  Iter=  3 NonCon=     1 RMS=7.94D-08 Max=7.95D-07 NDo=     1
 LinEq1:  Iter=  4 NonCon=     1 RMS=3.57D-08 Max=2.52D-07 NDo=     1
 LinEq1:  Iter=  5 NonCon=     1 RMS=1.66D-08 Max=2.10D-07 NDo=     1
 LinEq1:  Iter=  6 NonCon=     1 RMS=5.06D-09 Max=3.92D-08 NDo=     1
 LinEq1:  Iter=  7 NonCon=     0 RMS=6.79D-10 Max=5.02D-09 NDo=     1
 Linear equations converged to 1.795D-09 1.795D-08 after     7 iterations.
 Angle between quadratic step and gradient=  88.91 degrees.
     ILin= 1 X=0.000D+00 Y=-1.507776024573D+03 DE= 0.00D+00 F= -2.49D-08
     ILin= 2 X=1.000D+00 Y=-1.507776024547D+03 DE= 2.60D-08 F=  7.68D-08
     Reject lnstep minimum 2.448D-01 FVal=-1.507776024576D+03 Lims=  0.00D+00  1.00D+00
     ILin= 3 X=2.000D-01 Y=-1.507776024576D+03 DE=-2.95D-09 F= -4.56D-09
     A contracting polynomial of degree  3 produced  0.2448
 Iteration  52 EE= -1507.77602457585     Delta-E=       -0.000000003047 Grad=1.856D-04 Max rot=    0.0053 deg.
 QCNR:  CnvC1=1.86D-09 CnvC2=1.86D-08
 LinEq1:  Iter=  0 NonCon=     1 RMS=1.58D-06 Max=1.17D-05 NDo=     1
 LinEq1:  Iter=  1 NonCon=     1 RMS=3.80D-07 Max=4.36D-06 NDo=     1
 LinEq1:  Iter=  2 NonCon=     1 RMS=1.39D-07 Max=1.24D-06 NDo=     1
 LinEq1:  Iter=  3 NonCon=     1 RMS=6.44D-08 Max=6.21D-07 NDo=     1
 LinEq1:  Iter=  4 NonCon=     1 RMS=1.94D-08 Max=1.93D-07 NDo=     1
 LinEq1:  Iter=  5 NonCon=     1 RMS=1.07D-08 Max=1.09D-07 NDo=     1
 LinEq1:  Iter=  6 NonCon=     1 RMS=5.01D-09 Max=6.51D-08 NDo=     1
 LinEq1:  Iter=  7 NonCon=     0 RMS=1.12D-09 Max=8.39D-09 NDo=     1
 Linear equations converged to 1.856D-09 1.856D-08 after     7 iterations.
 Angle between quadratic step and gradient=  88.49 degrees.
     ILin= 1 X=0.000D+00 Y=-1.507776024576D+03 DE= 0.00D+00 F= -1.61D-08
     ILin= 2 X=1.000D+00 Y=-1.507776024572D+03 DE= 4.30D-09 F=  2.47D-08
     Reject lnstep minimum 3.946D-01 FVal=-1.507776024579D+03 Lims=  0.00D+00  1.00D+00
     ILin= 3 X=4.000D-01 Y=-1.507776024579D+03 DE=-3.18D-09 F=  2.22D-10
     A contracting polynomial of degree  3 produced  0.3946
     Minimum is close to point  3 DX= -5.42D-03 DF= -6.82D-13 DXR=  1.37D-02 DFR=  2.15D-04 which will be used.
 Iteration  53 EE= -1507.77602457903     Delta-E=       -0.000000003176 Grad=1.750D-04 Max rot=    0.0044 deg.
 QCNR:  CnvC1=1.75D-09 CnvC2=1.75D-08
 LinEq1:  Iter=  0 NonCon=     1 RMS=1.43D-06 Max=1.08D-05 NDo=     1
 LinEq1:  Iter=  1 NonCon=     1 RMS=3.52D-07 Max=3.85D-06 NDo=     1
 LinEq1:  Iter=  2 NonCon=     1 RMS=1.46D-07 Max=1.16D-06 NDo=     1
 LinEq1:  Iter=  3 NonCon=     1 RMS=8.10D-08 Max=7.31D-07 NDo=     1
 LinEq1:  Iter=  4 NonCon=     1 RMS=3.76D-08 Max=2.86D-07 NDo=     1
 LinEq1:  Iter=  5 NonCon=     1 RMS=1.24D-08 Max=1.35D-07 NDo=     1
 LinEq1:  Iter=  6 NonCon=     1 RMS=4.29D-09 Max=4.79D-08 NDo=     1
 LinEq1:  Iter=  7 NonCon=     0 RMS=7.72D-10 Max=5.73D-09 NDo=     1
 Linear equations converged to 1.750D-09 1.750D-08 after     7 iterations.
 Angle between quadratic step and gradient=  88.85 degrees.
     ILin= 1 X=0.000D+00 Y=-1.507776024579D+03 DE= 0.00D+00 F= -2.07D-08
     ILin= 2 X=1.000D+00 Y=-1.507776024562D+03 DE= 1.67D-08 F=  5.40D-08
     Reject lnstep minimum 2.768D-01 FVal=-1.507776024582D+03 Lims=  0.00D+00  1.00D+00
     ILin= 3 X=3.000D-01 Y=-1.507776024582D+03 DE=-2.84D-09 F=  1.73D-09
     A contracting polynomial of degree  3 produced  0.2769
     Minimum is close to point  3 DX= -2.31D-02 DF= -2.02D-11 DXR=  8.36D-02 DFR=  7.12D-03 which will be used.
 Iteration  54 EE= -1507.77602458187     Delta-E=       -0.000000002842 Grad=1.789D-04 Max rot=    0.0056 deg.
 QCNR:  CnvC1=1.79D-09 CnvC2=1.79D-08
 LinEq1:  Iter=  0 NonCon=     1 RMS=1.53D-06 Max=1.11D-05 NDo=     1
 LinEq1:  Iter=  1 NonCon=     1 RMS=3.57D-07 Max=4.14D-06 NDo=     1
 LinEq1:  Iter=  2 NonCon=     1 RMS=1.37D-07 Max=1.29D-06 NDo=     1
 LinEq1:  Iter=  3 NonCon=     1 RMS=7.14D-08 Max=6.36D-07 NDo=     1
 LinEq1:  Iter=  4 NonCon=     1 RMS=3.17D-08 Max=2.28D-07 NDo=     1
 LinEq1:  Iter=  5 NonCon=     1 RMS=1.23D-08 Max=1.07D-07 NDo=     1
 LinEq1:  Iter=  6 NonCon=     1 RMS=4.25D-09 Max=6.32D-08 NDo=     1
 LinEq1:  Iter=  7 NonCon=     0 RMS=1.11D-09 Max=8.03D-09 NDo=     1
 Linear equations converged to 1.789D-09 1.789D-08 after     7 iterations.
 Angle between quadratic step and gradient=  88.59 degrees.
     ILin= 1 X=0.000D+00 Y=-1.507776024582D+03 DE= 0.00D+00 F= -1.58D-08
     ILin= 2 X=1.000D+00 Y=-1.507776024580D+03 DE= 1.51D-09 F=  1.88D-08
     Reject lnstep minimum 4.564D-01 FVal=-1.507776024585D+03 Lims=  0.00D+00  1.00D+00
     ILin= 3 X=5.000D-01 Y=-1.507776024585D+03 DE=-3.57D-09 F=  1.51D-09
     A contracting polynomial of degree  3 produced  0.4564
     Minimum is close to point  3 DX= -4.36D-02 DF= -3.32D-11 DXR=  9.56D-02 DFR=  9.29D-03 which will be used.
 Iteration  55 EE= -1507.77602458544     Delta-E=       -0.000000003572 Grad=1.690D-04 Max rot=    0.0049 deg.
 QCNR:  CnvC1=1.69D-09 CnvC2=1.69D-08
 LinEq1:  Iter=  0 NonCon=     1 RMS=1.46D-06 Max=8.32D-06 NDo=     1
 LinEq1:  Iter=  1 NonCon=     1 RMS=3.95D-07 Max=3.90D-06 NDo=     1
 LinEq1:  Iter=  2 NonCon=     1 RMS=1.44D-07 Max=1.21D-06 NDo=     1
 LinEq1:  Iter=  3 NonCon=     1 RMS=5.86D-08 Max=4.62D-07 NDo=     1
 LinEq1:  Iter=  4 NonCon=     1 RMS=1.83D-08 Max=1.60D-07 NDo=     1
 LinEq1:  Iter=  5 NonCon=     1 RMS=1.15D-08 Max=8.92D-08 NDo=     1
 LinEq1:  Iter=  6 NonCon=     1 RMS=5.46D-09 Max=3.37D-08 NDo=     1
 LinEq1:  Iter=  7 NonCon=     0 RMS=1.04D-09 Max=7.21D-09 NDo=     1
 Linear equations converged to 1.690D-09 1.690D-08 after     7 iterations.
 Angle between quadratic step and gradient=  88.24 degrees.
     ILin= 1 X=0.000D+00 Y=-1.507776024585D+03 DE= 0.00D+00 F= -1.40D-08
     ILin= 2 X=1.000D+00 Y=-1.507776024579D+03 DE= 6.12D-09 F=  2.62D-08
     Reject lnstep minimum 3.479D-01 FVal=-1.507776024588D+03 Lims=  0.00D+00  1.00D+00
     ILin= 3 X=3.000D-01 Y=-1.507776024588D+03 DE=-2.39D-09 F= -1.93D-09
     A contracting polynomial of degree  3 produced  0.3479
 Iteration  56 EE= -1507.77602458788     Delta-E=       -0.000000002437 Grad=1.527D-04 Max rot=    0.0046 deg.
 QCNR:  CnvC1=1.53D-09 CnvC2=1.53D-08
 LinEq1:  Iter=  0 NonCon=     1 RMS=1.34D-06 Max=1.12D-05 NDo=     1
 LinEq1:  Iter=  1 NonCon=     1 RMS=3.37D-07 Max=3.97D-06 NDo=     1
 LinEq1:  Iter=  2 NonCon=     1 RMS=1.47D-07 Max=1.16D-06 NDo=     1
 LinEq1:  Iter=  3 NonCon=     1 RMS=8.60D-08 Max=8.20D-07 NDo=     1
 LinEq1:  Iter=  4 NonCon=     1 RMS=3.96D-08 Max=2.56D-07 NDo=     1
 LinEq1:  Iter=  5 NonCon=     1 RMS=1.11D-08 Max=1.34D-07 NDo=     1
 LinEq1:  Iter=  6 NonCon=     1 RMS=4.26D-09 Max=4.80D-08 NDo=     1
 LinEq1:  Iter=  7 NonCon=     0 RMS=6.88D-10 Max=4.81D-09 NDo=     1
 Linear equations converged to 1.527D-09 1.527D-08 after     7 iterations.
 Angle between quadratic step and gradient=  88.99 degrees.
     ILin= 1 X=0.000D+00 Y=-1.507776024588D+03 DE= 0.00D+00 F= -1.49D-08
     ILin= 2 X=1.000D+00 Y=-1.507776024579D+03 DE= 9.01D-09 F=  3.29D-08
     Reject lnstep minimum 3.114D-01 FVal=-1.507776024590D+03 Lims=  0.00D+00  1.00D+00
     ILin= 3 X=3.000D-01 Y=-1.507776024590D+03 DE=-2.31D-09 F= -5.44D-10
     A contracting polynomial of degree  3 produced  0.3113
     Minimum is close to point  3 DX=  1.13D-02 DF= -3.18D-12 DXR=  3.64D-02 DFR=  1.38D-03 which will be used.
 Iteration  57 EE= -1507.77602459019     Delta-E=       -0.000000002311 Grad=1.647D-04 Max rot=    0.0045 deg.
 QCNR:  CnvC1=1.65D-09 CnvC2=1.65D-08
 LinEq1:  Iter=  0 NonCon=     1 RMS=1.37D-06 Max=1.04D-05 NDo=     1
 LinEq1:  Iter=  1 NonCon=     1 RMS=3.20D-07 Max=3.49D-06 NDo=     1
 LinEq1:  Iter=  2 NonCon=     1 RMS=1.29D-07 Max=1.04D-06 NDo=     1
 LinEq1:  Iter=  3 NonCon=     1 RMS=7.23D-08 Max=5.68D-07 NDo=     1
 LinEq1:  Iter=  4 NonCon=     1 RMS=3.24D-08 Max=2.40D-07 NDo=     1
 LinEq1:  Iter=  5 NonCon=     1 RMS=1.08D-08 Max=8.26D-08 NDo=     1
 LinEq1:  Iter=  6 NonCon=     1 RMS=2.77D-09 Max=4.18D-08 NDo=     1
 LinEq1:  Iter=  7 NonCon=     0 RMS=9.04D-10 Max=7.63D-09 NDo=     1
 Linear equations converged to 1.647D-09 1.647D-08 after     7 iterations.
 Angle between quadratic step and gradient=  88.86 degrees.
     ILin= 1 X=0.000D+00 Y=-1.507776024590D+03 DE= 0.00D+00 F= -1.73D-08
     ILin= 2 X=1.000D+00 Y=-1.507776024587D+03 DE= 3.27D-09 F=  2.38D-08
     Reject lnstep minimum 4.204D-01 FVal=-1.507776024594D+03 Lims=  0.00D+00  1.00D+00
     ILin= 3 X=4.000D-01 Y=-1.507776024594D+03 DE=-3.62D-09 F= -8.36D-10
     A contracting polynomial of degree  3 produced  0.4204
     Minimum is close to point  3 DX=  2.04D-02 DF= -8.41D-12 DXR=  4.85D-02 DFR=  2.33D-03 which will be used.
 Iteration  58 EE= -1507.77602459380     Delta-E=       -0.000000003617 Grad=1.538D-04 Max rot=    0.0046 deg.
 QCNR:  CnvC1=1.54D-09 CnvC2=1.54D-08
 LinEq1:  Iter=  0 NonCon=     1 RMS=1.39D-06 Max=1.14D-05 NDo=     1
 LinEq1:  Iter=  1 NonCon=     1 RMS=4.33D-07 Max=5.47D-06 NDo=     1
 LinEq1:  Iter=  2 NonCon=     1 RMS=1.38D-07 Max=1.19D-06 NDo=     1
 LinEq1:  Iter=  3 NonCon=     1 RMS=6.04D-08 Max=6.35D-07 NDo=     1
 LinEq1:  Iter=  4 NonCon=     1 RMS=2.27D-08 Max=1.56D-07 NDo=     1
 LinEq1:  Iter=  5 NonCon=     1 RMS=1.50D-08 Max=1.32D-07 NDo=     1
 LinEq1:  Iter=  6 NonCon=     1 RMS=5.25D-09 Max=2.81D-08 NDo=     1
 LinEq1:  Iter=  7 NonCon=     0 RMS=7.68D-10 Max=6.71D-09 NDo=     1
 Linear equations converged to 1.538D-09 1.538D-08 after     7 iterations.
 Angle between quadratic step and gradient=  88.72 degrees.
     ILin= 1 X=0.000D+00 Y=-1.507776024594D+03 DE= 0.00D+00 F= -1.23D-08
     ILin= 2 X=1.000D+00 Y=-1.507776024594D+03 DE= 1.49D-10 F=  1.26D-08
 QCLLim returned failure.
     ILin= 3 X=2.000D+00 Y=-1.507776024569D+03 DE= 2.52D-08 F=  3.75D-08
 QCLLim is confused:  Bigger=T Turned=T
 NLin=  3 IMin12=  1  2 I12=  0  2 IX=  1 XLMin= 0.000D+00 XLMax= 0.000D+00
 X = 0.000D+00 1.000D+00 2.000D+00
 DE= 0.000D+00 1.487D-10 2.521D-08
     An  expanding polynomial of degree  3 produced  0.4940
 Iteration  59 EE= -1507.77602459684     Delta-E=       -0.000000003040 Grad=1.438D-04 Max rot=    0.0029 deg.
 QCNR:  CnvC1=1.44D-09 CnvC2=1.44D-08
 LinEq1:  Iter=  0 NonCon=     1 RMS=1.48D-06 Max=1.02D-05 NDo=     1
 LinEq1:  Iter=  1 NonCon=     1 RMS=3.27D-07 Max=2.66D-06 NDo=     1
 LinEq1:  Iter=  2 NonCon=     1 RMS=1.22D-07 Max=1.05D-06 NDo=     1
 LinEq1:  Iter=  3 NonCon=     1 RMS=5.84D-08 Max=3.81D-07 NDo=     1
 LinEq1:  Iter=  4 NonCon=     1 RMS=2.15D-08 Max=1.70D-07 NDo=     1
 LinEq1:  Iter=  5 NonCon=     1 RMS=1.27D-08 Max=1.03D-07 NDo=     1
 LinEq1:  Iter=  6 NonCon=     1 RMS=3.80D-09 Max=4.37D-08 NDo=     1
 LinEq1:  Iter=  7 NonCon=     0 RMS=9.44D-10 Max=7.80D-09 NDo=     1
 Linear equations converged to 1.438D-09 1.438D-08 after     7 iterations.
 Angle between quadratic step and gradient=  88.21 degrees.
     ILin= 1 X=0.000D+00 Y=-1.507776024597D+03 DE= 0.00D+00 F= -1.15D-08
     ILin= 2 X=1.000D+00 Y=-1.507776024589D+03 DE= 7.54D-09 F=  2.65D-08
     Reject lnstep minimum 3.017D-01 FVal=-1.507776024599D+03 Lims=  0.00D+00  1.00D+00
     ILin= 3 X=3.000D-01 Y=-1.507776024599D+03 DE=-1.73D-09 F= -6.39D-11
     A contracting polynomial of degree  3 produced  0.3016
     Minimum is close to point  3 DX=  1.61D-03 DF=  0.00D+00 DXR=  5.33D-03 DFR=  0.00D+00 which will be used.
 Iteration  60 EE= -1507.77602459857     Delta-E=       -0.000000001729 Grad=1.331D-04 Max rot=    0.0036 deg.
 QCNR:  CnvC1=1.33D-09 CnvC2=1.33D-08
 LinEq1:  Iter=  0 NonCon=     1 RMS=1.28D-06 Max=1.13D-05 NDo=     1
 LinEq1:  Iter=  1 NonCon=     1 RMS=3.14D-07 Max=3.53D-06 NDo=     1
 LinEq1:  Iter=  2 NonCon=     1 RMS=1.10D-07 Max=1.12D-06 NDo=     1
 LinEq1:  Iter=  3 NonCon=     1 RMS=5.64D-08 Max=4.56D-07 NDo=     1
 LinEq1:  Iter=  4 NonCon=     1 RMS=1.88D-08 Max=1.52D-07 NDo=     1
 LinEq1:  Iter=  5 NonCon=     1 RMS=8.97D-09 Max=6.96D-08 NDo=     1
 LinEq1:  Iter=  6 NonCon=     1 RMS=2.89D-09 Max=4.12D-08 NDo=     1
 LinEq1:  Iter=  7 NonCon=     0 RMS=9.76D-10 Max=8.96D-09 NDo=     1
 Linear equations converged to 1.331D-09 1.331D-08 after     7 iterations.
 Angle between quadratic step and gradient=  88.70 degrees.
     ILin= 1 X=0.000D+00 Y=-1.507776024599D+03 DE= 0.00D+00 F= -1.13D-08
     ILin= 2 X=1.000D+00 Y=-1.507776024599D+03 DE=-1.31D-10 F=  1.10D-08
     Accept linear search using points  1 and  2.
     An  expanding polynomial of degree  2 produced  0.5059
 Iteration  61 EE= -1507.77602460142     Delta-E=       -0.000000002850 Grad=1.274D-04 Max rot=    0.0034 deg.
 QCNR:  CnvC1=1.27D-09 CnvC2=1.27D-08
 LinEq1:  Iter=  0 NonCon=     1 RMS=1.25D-06 Max=9.31D-06 NDo=     1
 LinEq1:  Iter=  1 NonCon=     1 RMS=4.05D-07 Max=4.48D-06 NDo=     1
 LinEq1:  Iter=  2 NonCon=     1 RMS=1.33D-07 Max=9.12D-07 NDo=     1
 LinEq1:  Iter=  3 NonCon=     1 RMS=5.71D-08 Max=4.60D-07 NDo=     1
 LinEq1:  Iter=  4 NonCon=     1 RMS=2.33D-08 Max=1.80D-07 NDo=     1
 LinEq1:  Iter=  5 NonCon=     1 RMS=1.51D-08 Max=1.53D-07 NDo=     1
 LinEq1:  Iter=  6 NonCon=     1 RMS=4.59D-09 Max=3.01D-08 NDo=     1
 LinEq1:  Iter=  7 NonCon=     0 RMS=9.86D-10 Max=7.11D-09 NDo=     1
 Linear equations converged to 1.274D-09 1.274D-08 after     7 iterations.
 Angle between quadratic step and gradient=  87.93 degrees.
     ILin= 1 X=0.000D+00 Y=-1.507776024601D+03 DE= 0.00D+00 F= -8.73D-09
     ILin= 2 X=1.000D+00 Y=-1.507776024601D+03 DE= 6.61D-10 F=  1.00D-08
 QCLLim returned failure.
     ILin= 3 X=2.000D+00 Y=-1.507776024581D+03 DE= 2.01D-08 F=  2.88D-08
 QCLLim is confused:  Bigger=T Turned=T
 NLin=  3 IMin12=  1  2 I12=  0  2 IX=  1 XLMin= 0.000D+00 XLMax= 0.000D+00
 X = 0.000D+00 1.000D+00 2.000D+00
 DE= 0.000D+00 6.605D-10 2.009D-08
     An  expanding polynomial of degree  3 produced  0.4648
 Iteration  62 EE= -1507.77602460345     Delta-E=       -0.000000002029 Grad=1.063D-04 Max rot=    0.0024 deg.
 QCNR:  CnvC1=1.06D-09 CnvC2=1.06D-08
 LinEq1:  Iter=  0 NonCon=     1 RMS=1.17D-06 Max=1.11D-05 NDo=     1
 LinEq1:  Iter=  1 NonCon=     1 RMS=3.04D-07 Max=2.97D-06 NDo=     1
 LinEq1:  Iter=  2 NonCon=     1 RMS=1.14D-07 Max=9.77D-07 NDo=     1
 LinEq1:  Iter=  3 NonCon=     1 RMS=5.64D-08 Max=4.60D-07 NDo=     1
 LinEq1:  Iter=  4 NonCon=     1 RMS=2.25D-08 Max=1.50D-07 NDo=     1
 LinEq1:  Iter=  5 NonCon=     1 RMS=1.21D-08 Max=1.19D-07 NDo=     1
 LinEq1:  Iter=  6 NonCon=     1 RMS=3.96D-09 Max=3.57D-08 NDo=     1
 LinEq1:  Iter=  7 NonCon=     0 RMS=9.59D-10 Max=5.65D-09 NDo=     1
 Linear equations converged to 1.063D-09 1.063D-08 after     7 iterations.
 Angle between quadratic step and gradient=  88.12 degrees.
     ILin= 1 X=0.000D+00 Y=-1.507776024603D+03 DE= 0.00D+00 F= -6.75D-09
     ILin= 2 X=1.000D+00 Y=-1.507776024599D+03 DE= 4.40D-09 F=  1.55D-08
     Reject lnstep minimum 3.027D-01 FVal=-1.507776024604D+03 Lims=  0.00D+00  1.00D+00
     ILin= 3 X=3.000D-01 Y=-1.507776024604D+03 DE=-1.02D-09 F= -5.97D-11
     A contracting polynomial of degree  3 produced  0.3027
     Minimum is close to point  3 DX=  2.73D-03 DF=  0.00D+00 DXR=  9.01D-03 DFR=  0.00D+00 which will be used.
 Iteration  63 EE= -1507.77602460447     Delta-E=       -0.000000001022 Grad=1.043D-04 Max rot=    0.0024 deg.
 QCNR:  CnvC1=1.04D-09 CnvC2=1.04D-08
 LinEq1:  Iter=  0 NonCon=     1 RMS=1.02D-06 Max=9.21D-06 NDo=     1
 LinEq1:  Iter=  1 NonCon=     1 RMS=2.66D-07 Max=2.81D-06 NDo=     1
 LinEq1:  Iter=  2 NonCon=     1 RMS=9.54D-08 Max=1.00D-06 NDo=     1
 LinEq1:  Iter=  3 NonCon=     1 RMS=4.83D-08 Max=4.20D-07 NDo=     1
 LinEq1:  Iter=  4 NonCon=     1 RMS=7.33D-09 Max=5.79D-08 NDo=     1
 LinEq1:  Iter=  5 NonCon=     1 RMS=2.81D-09 Max=2.06D-08 NDo=     1
 LinEq1:  Iter=  6 NonCon=     1 RMS=8.44D-10 Max=1.39D-08 NDo=     1
 LinEq1:  Iter=  7 NonCon=     0 RMS=2.03D-10 Max=1.40D-09 NDo=     1
 Linear equations converged to 1.043D-09 1.043D-08 after     7 iterations.
 Angle between quadratic step and gradient=  89.16 degrees.
     ILin= 1 X=0.000D+00 Y=-1.507776024604D+03 DE= 0.00D+00 F= -3.76D-08
     ILin= 2 X=1.000D+00 Y=-1.507776024612D+03 DE=-7.91D-09 F=  2.22D-08
     Accept linear search using points  1 and  2.
     An  expanding polynomial of degree  2 produced  0.6338
 Iteration  64 EE= -1507.77602461644     Delta-E=       -0.000000011961 Grad=1.869D-04 Max rot=    0.0053 deg.
 QCNR:  CnvC1=1.87D-09 CnvC2=1.87D-08
 LinEq1:  Iter=  0 NonCon=     1 RMS=2.16D-06 Max=1.33D-05 NDo=     1
[...]
     No minimum found in polynomial.
 The polynomial fit failed.  Using point  2.
     An  expanding polynomial of degree 16 produced  1.0000
 Search did not lower the energy significantly.
 No lower point found -- using Newton-Raphson step.
 Iteration 146 EE= -1507.77602464166     Delta-E=        0.000000000001 Grad=1.061D-06 Max rot=    0.0000 deg.
 QCNR:  CnvC1=1.06D-11 CnvC2=1.06D-10
 LinEq1:  Iter=  0 NonCon=     1 RMS=1.05D-08 Max=9.07D-08 NDo=     1
 LinEq1:  Iter=  1 NonCon=     1 RMS=4.12D-09 Max=5.77D-08 NDo=     1
 LinEq1:  Iter=  2 NonCon=     1 RMS=2.23D-09 Max=2.29D-08 NDo=     1
 LinEq1:  Iter=  3 NonCon=     1 RMS=1.02D-09 Max=6.20D-09 NDo=     1
 LinEq1:  Iter=  4 NonCon=     1 RMS=3.28D-10 Max=3.58D-09 NDo=     1
 LinEq1:  Iter=  5 NonCon=     1 RMS=1.48D-10 Max=2.16D-09 NDo=     1
 LinEq1:  Iter=  6 NonCon=     1 RMS=4.40D-11 Max=5.18D-10 NDo=     1
 LinEq1:  Iter=  7 NonCon=     0 RMS=7.96D-12 Max=7.62D-11 NDo=     1
 Linear equations converged to 1.061D-11 1.061D-10 after     7 iterations.
 Angle between quadratic step and gradient=  87.05 degrees.
     ILin= 1 X=0.000D+00 Y=-1.507776024642D+03 DE= 0.00D+00 F= -4.56D-13
     ILin= 2 X=1.000D+00 Y=-1.507776024642D+03 DE=-1.36D-12
 Iteration 147 EE= -1507.77602464167     Delta-E=       -0.000000000001 Grad=5.977D-07 Max rot=    0.0000 deg.
 QCNR:  CnvC1=5.98D-12 CnvC2=5.98D-11
 LinEq1:  Iter=  0 NonCon=     1 RMS=1.07D-08 Max=1.02D-07 NDo=     1
 LinEq1:  Iter=  1 NonCon=     1 RMS=1.97D-09 Max=2.34D-08 NDo=     1
 LinEq1:  Iter=  2 NonCon=     1 RMS=5.83D-10 Max=8.45D-09 NDo=     1
 LinEq1:  Iter=  3 NonCon=     1 RMS=2.65D-10 Max=2.93D-09 NDo=     1
 LinEq1:  Iter=  4 NonCon=     1 RMS=8.66D-11 Max=5.26D-10 NDo=     1
 LinEq1:  Iter=  5 NonCon=     1 RMS=4.04D-11 Max=4.05D-10 NDo=     1
 LinEq1:  Iter=  6 NonCon=     1 RMS=2.14D-11 Max=3.01D-10 NDo=     1
 LinEq1:  Iter=  7 NonCon=     1 RMS=8.13D-12 Max=7.11D-11 NDo=     1
 LinEq1:  Iter=  8 NonCon=     0 RMS=3.82D-13 Max=2.16D-12 NDo=     1
 Linear equations converged to 5.977D-12 5.977D-11 after     8 iterations.
 Angle between quadratic step and gradient=  89.05 degrees.
     ILin= 1 X=0.000D+00 Y=-1.507776024642D+03 DE= 0.00D+00 F= -3.89D-12
     ILin= 2 X=1.000D+00 Y=-1.507776024642D+03 DE=-4.55D-13
 Iteration 148 EE= -1507.77602464167     Delta-E=       -0.000000000000 Grad=7.622D-06 Max rot=    0.0001 deg.
 QCNR:  CnvC1=7.62D-11 CnvC2=7.62D-10
 LinEq1:  Iter=  0 NonCon=     1 RMS=3.49D-08 Max=2.10D-07 NDo=     1
 LinEq1:  Iter=  1 NonCon=     1 RMS=5.06D-09 Max=3.75D-08 NDo=     1
 LinEq1:  Iter=  2 NonCon=     1 RMS=1.02D-09 Max=1.16D-08 NDo=     1
 LinEq1:  Iter=  3 NonCon=     1 RMS=5.30D-10 Max=4.17D-09 NDo=     1
 LinEq1:  Iter=  4 NonCon=     1 RMS=2.90D-10 Max=2.48D-09 NDo=     1
 LinEq1:  Iter=  5 NonCon=     1 RMS=9.87D-11 Max=1.06D-09 NDo=     1
 LinEq1:  Iter=  6 NonCon=     0 RMS=3.96D-11 Max=4.30D-10 NDo=     1
 Linear equations converged to 7.622D-11 7.622D-10 after     6 iterations.
 Angle between quadratic step and gradient=  65.11 degrees.
     ILin= 1 X=0.000D+00 Y=-1.507776024642D+03 DE= 0.00D+00 F= -6.75D-12
     ILin= 2 X=1.000D+00 Y=-1.507776024642D+03 DE=-3.18D-12
 Iteration 149 EE= -1507.77602464167     Delta-E=       -0.000000000003 Grad=1.107D-07 Max rot=    0.0000 deg.
 Error on total polarization charges =  0.00108
 Rotation gradient small -- convergence achieved.
 SCF Done:  E(UwB97XD) =  -1507.77602464     a.u. after  149 cycles
            Convg  =    0.1107D-06                  1256 Fock formations.
              S**2 =  2.0007                  -V/T =  2.0018
 <Sx>= 0.0000 <Sy>= 0.0000 <Sz>= 1.0000 <S**2>= 2.0007 S= 1.0002
 <L.S>=  0.00000000000    
 SMD-CDS (non-electrostatic) energy       (kcal/mol) =       0.55
 (included in total energy above)
 Annihilation of the first spin contaminant:
 S**2 before annihilation     2.0007,   after     2.0000
 Leave Link  508 at Wed Jan 19 00:17:55 2022, MaxMem=  1342177280 cpu:             397.5 elap:             100.2
 (Enter /curc/sw/gaussian/16/g16/l601.exe)
 Copying SCF densities to generalized density rwf, IOpCl= 1 IROHF=0.

 **********************************************************************

            Population analysis using the SCF density.

 **********************************************************************

 Alpha  occ. eigenvalues -- -300.29196 -36.17277 -31.58373 -31.58373 -31.58373
 Alpha  occ. eigenvalues --   -4.40092  -2.98534  -2.98534  -2.98534  -0.65200
 Alpha  occ. eigenvalues --   -0.65200  -0.61089  -0.61089  -0.61089
 Alpha virt. eigenvalues --   -0.05482   0.12582   0.17091   0.17091   0.17092
 Alpha virt. eigenvalues --    1.16853   1.16854   1.17466   1.17466   1.17467
 Alpha virt. eigenvalues --    5.34779   5.34779   5.34779   5.36919   5.36919
 Alpha virt. eigenvalues --    5.36919   5.39644
  Beta  occ. eigenvalues -- -300.29144 -36.12280 -31.54299 -31.54299 -31.54299
  Beta  occ. eigenvalues --   -4.29840  -2.87314  -2.87314  -2.87314  -0.56292
  Beta  occ. eigenvalues --   -0.56292  -0.56292
  Beta virt. eigenvalues --   -0.14587  -0.14587  -0.04140   0.13308   0.18355
  Beta virt. eigenvalues --    0.18355   0.18356   1.19417   1.19417   1.19418
  Beta virt. eigenvalues --    1.26459   1.26459   5.41254   5.43990   5.43991
  Beta virt. eigenvalues --    5.43991   5.46657   5.46657   5.46657
          Condensed to atoms (all electrons):
               1
     1  Ni  26.000000
          Atomic-Atomic Spin Densities.
               1
     1  Ni   2.000000
 Mulliken charges and spin densities:
               1          2
     1  Ni   2.000000   2.000000
 Sum of Mulliken charges =   2.00000   2.00000
 Mulliken charges and spin densities with hydrogens summed into heavy atoms:
               1          2
     1  Ni   2.000000   2.000000
 Electronic spatial extent (au):  <R**2>=             15.4272
 Charge=              2.0000 electrons
 Dipole moment (field-independent basis, Debye):
    X=             -0.0000    Y=             -0.0000    Z=              0.0000  Tot=              0.0000
 Quadrupole moment (field-independent basis, Debye-Ang):
   XX=             -6.9167   YY=             -6.9167   ZZ=             -6.9167
   XY=             -0.0000   XZ=             -0.0000   YZ=              0.0000
 Traceless Quadrupole moment (field-independent basis, Debye-Ang):
   XX=              0.0000   YY=             -0.0000   ZZ=             -0.0000
   XY=             -0.0000   XZ=             -0.0000   YZ=              0.0000
 Octapole moment (field-independent basis, Debye-Ang**2):
  XXX=             -0.0000  YYY=              0.0000  ZZZ=              0.0000  XYY=             -0.0000
  XXY=              0.0000  XXZ=              0.0000  XZZ=              0.0000  YZZ=              0.0000
  YYZ=              0.0000  XYZ=             -0.0000
 Hexadecapole moment (field-independent basis, Debye-Ang**3):
 XXXX=             -2.3222 YYYY=             -2.4470 ZZZZ=             -2.4470 XXXY=             -0.0000
 XXXZ=              0.0000 YYYX=              0.0000 YYYZ=             -0.0000 ZZZX=             -0.0000
 ZZZY=              0.0000 XXYY=             -0.8573 XXZZ=             -0.8573 YYZZ=             -0.7324
 XXYZ=              0.0000 YYXZ=             -0.0000 ZZXY=              0.0000
 N-N= 8.702596116764D-04 E-N=-3.577703897004D+03  KE= 1.505030394000D+03
                          Isotropic Fermi Contact Couplings
        Atom                 a.u.       MegaHertz       Gauss      10(-4) cm-1
     1  Ni(61)             0.06689     -13.38235      -4.77515      -4.46387
 --------------------------------------------------------
       Center         ----  Spin Dipole Couplings  ----
                      3XX-RR        3YY-RR        3ZZ-RR
 --------------------------------------------------------
     1   Atom       -0.000002      0.000002      0.000000
 --------------------------------------------------------
                        XY            XZ            YZ
 --------------------------------------------------------
     1   Atom        0.000000     -0.000000      0.000000
 --------------------------------------------------------


 ---------------------------------------------------------------------------------
              Anisotropic Spin Dipole Couplings in Principal Axis System
 ---------------------------------------------------------------------------------

       Atom             a.u.   MegaHertz   Gauss  10(-4) cm-1        Axes

              Baa    -0.0000     0.000     0.000     0.000  0.9898 -0.0017  0.1425
     1 Ni(61) Bbb     0.0000    -0.000    -0.000    -0.000 -0.1425 -0.0097  0.9897
              Bcc     0.0000    -0.000    -0.000    -0.000  0.0003  1.0000  0.0099
 

 ---------------------------------------------------------------------------------

 No NMR shielding tensors so no spin-rotation constants.
 Leave Link  601 at Wed Jan 19 00:17:55 2022, MaxMem=  1342177280 cpu:               0.7 elap:               0.2
 (Enter /curc/sw/gaussian/16/g16/l801.exe)
 DoSCS=F DFT=T ScalE2(SS,OS)=  1.000000  1.000000
 Range of M.O.s used for correlation:     1    31
 NBasis=    31 NAE=    14 NBE=    12 NFC=     0 NFV=     0
 NROrb=     31 NOA=    14 NOB=    12 NVA=    17 NVB=    19
 Leave Link  801 at Wed Jan 19 00:17:56 2022, MaxMem=  1342177280 cpu:               0.1 elap:               0.0
 (Enter /curc/sw/gaussian/16/g16/l914.exe)
 UHF ground state
 Doing stability rather than CIS.
 Keep R1 and R2 ints in memory in canonical form, NReq=4364469.
 FoFCou: FMM=F IPFlag=           0 FMFlag=           0 FMFlg1=           0
         NFxFlg=           0 DoJE=F BraDBF=F KetDBF=F FulRan=T
         wScrn=  0.000000 ICntrl=       600 IOpCl=  0 I1Cent=           0 NGrid=           0
         NMat0=    1 NMatS0=    496 NMatT0=    0 NMatD0=    1 NMtDS0=    0 NMtDT0=    0
 Symmetry not used in FoFCou.
 Two-electron integral symmetry not used.
 MDV=  1342177280 DFT=T DoStab=T Mixed=T DoRPA=F DoScal=F NonHer=F
 NEqPCM:  Using equilibrium solvation (IEInf=0, Eps=  19.2640, EpsInf=   1.8978)
 Making orbital integer symmetry assigments:
    12 initial guesses have been made.
 Convergence on wavefunction:    0.001000000000000
 Davidson Disk Diagonalization:  ConvIn= 1.00D-03 SkipCon=T Conv= 1.00D-03.
 Max sub-space:   932 roots to seek:    12 dimension of matrix:          466
 Iteration     1 Dimension    12 NMult     0 NNew     12
 CISAX will form    12 AO SS matrices at one time.
 NMat=    12 NSing=    12 JSym2X= 0.
 New state      1 was old state      2
 Excitation Energies [eV] at current iteration:
 Root      1 :     0.103724475798259
 Root      2 :     0.105076567352019
 Root      3 :     0.105076692217611
 Root      4 :     1.803194217919572
 Root      5 :     1.803473308658524
 Root      6 :     1.803473649761451
 Root      7 :     7.319467923714560
 Root      8 :     7.319468158636637
 Root      9 :     7.319606427825502
 Root     10 :     8.279055893251769
 Root     11 :     8.279089778157447
 Root     12 :     8.279089952198776
 Iteration     2 Dimension    24 NMult    12 NNew     12
 CISAX will form    12 AO SS matrices at one time.
 NMat=    12 NSing=    12 JSym2X= 0.
 Root      1 not converged, maximum delta is    0.034224060749099
 Excitation Energies [eV] at current iteration:
 Root      1 :     0.001129002850115   Change is   -0.102595472948144
 Root      2 :     0.002590472205534   Change is   -0.102486095146485
 Root      3 :     0.002590596655964   Change is   -0.102486095561647
 Root      4 :     1.619159537674296   Change is   -0.184034680245276
 Root      5 :     1.619438303128925   Change is   -0.184035005529599
 Root      6 :     1.619438632286261   Change is   -0.184035017475190
 Root      7 :     6.976381200094642   Change is   -0.343086723619918
 Root      8 :     6.976381432971000   Change is   -0.343086725665636
 Root      9 :     6.976528290997669   Change is   -0.343078136827833
 Root     10 :     8.027130393292637   Change is   -0.251925499959132
 Root     11 :     8.027167723991870   Change is   -0.251922054165578
 Root     12 :     8.027167896763968   Change is   -0.251922055434808
 Iteration     3 Dimension    27 NMult    24 NNew      3
 CISAX will form     3 AO SS matrices at one time.
 NMat=     3 NSing=     3 JSym2X= 0.
 Root      1 not converged, maximum delta is    0.002228770864147
 Excitation Energies [eV] at current iteration:
 Root      1 :     0.000432880030207   Change is   -0.000696122819907
 Root      2 :     0.001894663743903   Change is   -0.000695808461631
 Root      3 :     0.001894788193566   Change is   -0.000695808462398
 Iteration     4 Dimension    30 NMult    27 NNew      3
 CISAX will form     3 AO SS matrices at one time.
 NMat=     3 NSing=     3 JSym2X= 0.
 Root      1 has converged.
 Excitation Energies [eV] at current iteration:
 Root      1 :     0.000432277131246   Change is   -0.000000602898961
 Root      2 :     0.001894061163731   Change is   -0.000000602580172
 Root      3 :     0.001894185613267   Change is   -0.000000602580299
 Convergence achieved on expansion vectors.
 ***********************************************************************
 Stability analysis using <AA,BB:AA,BB> singles matrix:
 ***********************************************************************
 1PDM for each excited state written to RWF  633
 Ground to excited state transition densities written to RWF  633

 Eigenvectors of the stability matrix:
 
 Excited state symmetry could not be determined.
 Eigenvector   1:  3.001-?Sym  Eigenvalue= 0.0000159  <S**2>=2.001
     12B -> 14B        0.99908
 The wavefunction is stable under the perturbations considered.
 Leave Link  914 at Wed Jan 19 00:17:57 2022, MaxMem=  1342177280 cpu:               4.6 elap:               1.2
 (Enter /curc/sw/gaussian/16/g16/l508.exe)
 The wavefunction is already stable.
 Leave Link  508 at Wed Jan 19 00:17:58 2022, MaxMem=  1342177280 cpu:               0.0 elap:               0.0
 (Enter /curc/sw/gaussian/16/g16/l601.exe)
 Copying SCF densities to generalized density rwf, IOpCl= 1 IROHF=0.

 **********************************************************************

            Population analysis using the SCF density.

 **********************************************************************

 Alpha  occ. eigenvalues -- -300.29196 -36.17277 -31.58373 -31.58373 -31.58373
 Alpha  occ. eigenvalues --   -4.40092  -2.98534  -2.98534  -2.98534  -0.65200
 Alpha  occ. eigenvalues --   -0.65200  -0.61089  -0.61089  -0.61089
 Alpha virt. eigenvalues --   -0.05482   0.12582   0.17091   0.17091   0.17092
 Alpha virt. eigenvalues --    1.16853   1.16854   1.17466   1.17466   1.17467
 Alpha virt. eigenvalues --    5.34779   5.34779   5.34779   5.36919   5.36919
 Alpha virt. eigenvalues --    5.36919   5.39644
  Beta  occ. eigenvalues -- -300.29144 -36.12280 -31.54299 -31.54299 -31.54299
  Beta  occ. eigenvalues --   -4.29840  -2.87314  -2.87314  -2.87314  -0.56292
  Beta  occ. eigenvalues --   -0.56292  -0.56292
  Beta virt. eigenvalues --   -0.14587  -0.14587  -0.04140   0.13308   0.18355
  Beta virt. eigenvalues --    0.18355   0.18356   1.19417   1.19417   1.19418
  Beta virt. eigenvalues --    1.26459   1.26459   5.41254   5.43990   5.43991
  Beta virt. eigenvalues --    5.43991   5.46657   5.46657   5.46657
          Condensed to atoms (all electrons):
               1
     1  Ni  26.000000
          Atomic-Atomic Spin Densities.
               1
     1  Ni   2.000000
 Mulliken charges and spin densities:
               1          2
     1  Ni   2.000000   2.000000
 Sum of Mulliken charges =   2.00000   2.00000
 Mulliken charges and spin densities with hydrogens summed into heavy atoms:
               1          2
     1  Ni   2.000000   2.000000
 Electronic spatial extent (au):  <R**2>=             15.4272
 Charge=              2.0000 electrons
 Dipole moment (field-independent basis, Debye):
    X=             -0.0000    Y=             -0.0000    Z=              0.0000  Tot=              0.0000
 Quadrupole moment (field-independent basis, Debye-Ang):
   XX=             -6.9167   YY=             -6.9167   ZZ=             -6.9167
   XY=             -0.0000   XZ=             -0.0000   YZ=              0.0000
 Traceless Quadrupole moment (field-independent basis, Debye-Ang):
   XX=              0.0000   YY=             -0.0000   ZZ=             -0.0000
   XY=             -0.0000   XZ=             -0.0000   YZ=              0.0000
 Octapole moment (field-independent basis, Debye-Ang**2):
  XXX=             -0.0000  YYY=              0.0000  ZZZ=              0.0000  XYY=             -0.0000
  XXY=              0.0000  XXZ=              0.0000  XZZ=              0.0000  YZZ=              0.0000
  YYZ=              0.0000  XYZ=             -0.0000
 Hexadecapole moment (field-independent basis, Debye-Ang**3):
 XXXX=             -2.3222 YYYY=             -2.4470 ZZZZ=             -2.4470 XXXY=             -0.0000
 XXXZ=              0.0000 YYYX=              0.0000 YYYZ=             -0.0000 ZZZX=             -0.0000
 ZZZY=              0.0000 XXYY=             -0.8573 XXZZ=             -0.8573 YYZZ=             -0.7324
 XXYZ=              0.0000 YYXZ=             -0.0000 ZZXY=              0.0000
 N-N= 8.702596116764D-04 E-N=-3.577703897004D+03  KE= 1.505030394000D+03
                          Isotropic Fermi Contact Couplings
        Atom                 a.u.       MegaHertz       Gauss      10(-4) cm-1
     1  Ni(61)             0.06689     -13.38235      -4.77515      -4.46387
 --------------------------------------------------------
       Center         ----  Spin Dipole Couplings  ----
                      3XX-RR        3YY-RR        3ZZ-RR
 --------------------------------------------------------
     1   Atom       -0.000002      0.000002      0.000000
 --------------------------------------------------------
                        XY            XZ            YZ
 --------------------------------------------------------
     1   Atom        0.000000     -0.000000      0.000000
 --------------------------------------------------------


 ---------------------------------------------------------------------------------
              Anisotropic Spin Dipole Couplings in Principal Axis System
 ---------------------------------------------------------------------------------

       Atom             a.u.   MegaHertz   Gauss  10(-4) cm-1        Axes

              Baa    -0.0000     0.000     0.000     0.000  0.9898 -0.0017  0.1425
     1 Ni(61) Bbb     0.0000    -0.000    -0.000    -0.000 -0.1425 -0.0097  0.9897
              Bcc     0.0000    -0.000    -0.000    -0.000  0.0003  1.0000  0.0099
 

 ---------------------------------------------------------------------------------

 No NMR shielding tensors so no spin-rotation constants.
 Leave Link  601 at Wed Jan 19 00:17:58 2022, MaxMem=  1342177280 cpu:               0.6 elap:               0.2
 (Enter /curc/sw/gaussian/16/g16/l9999.exe)
 1\1\GINC-BNODE0302\Stability\UwB97XD\def2SVP\Ni1(2+,3)\XUWA0145\19-Jan
 -2022\0\\#p wb97xd def2svp scf=qc stable=opt scrf=(smd, solvent=2-prop
 anol) nosymm\\[No Title]\\2,3\Ni,0,0.,0.,0.\\Version=ES64L-G16RevA.03\
 HF=-1507.7760246\S2=2.000746\S2-1=0.\S2A=2.\RMSD=5.127e-09\Dipole=0.,0
 .,0.\Quadrupole=0.0000006,-0.0000002,-0.0000003,0.,0.,0.\PG=OH [O(Ni1)
 ]\\@


 THERE IS AN OLD, OLD RECIPE IN MAINE FOR STEWING COOT. PLACE THE
 BIRD IN A KETTLE OF WATER WITH A RED BUILDING BRICK FREE OF MORTAR AND
 BLEMISHES. PARBOIL THE COOT AND BRICK TOGETHER FOR THREE HOURS.
 POUR OFF THE WATER, REFILL THE KETTLE, AND AGAIN PARBOIL FOR THREE HOURS.
 ONCE AGAIN POUR OFF THE WATER, FOR THE LAST TIME ADD FRESH WATER,
 AND LET THE COOT AND BRICK SIMMER TOGETHER OVERNIGHT. IN THE MORNING,
 THROW AWAY THE COOT AND EAT THE BRICK.
 Job cpu time:       0 days  0 hours  6 minutes 45.5 seconds.
 Elapsed time:       0 days  0 hours  1 minutes 42.4 seconds.
 File lengths (MBytes):  RWF=     83 Int=      0 D2E=      0 Chk=      2 Scr=      2
 Normal termination of Gaussian 16 at Wed Jan 19 00:17:58 2022.
