 Entering Gaussian System, Link 0=g16
 Input=co_smd.gjf
 Output=co_smd.log
 Initial command:
 /curc/sw/gaussian/16/g16/l1.exe "/rc_scratch/xuwa0145/Gau-42254.inp" -scrdir="/rc_scratch/xuwa0145/"
 Entering Link 1 = /curc/sw/gaussian/16/g16/l1.exe PID=     42255.
  
 Copyright (c) 1988,1990,1992,1993,1995,1998,2003,2009,2016,
            Gaussian, Inc.  All Rights Reserved.
  
 This is part of the Gaussian(R) 16 program.  It is based on
 the Gaussian(R) 09 system (copyright 2009, Gaussian, Inc.),
 the Gaussian(R) 03 system (copyright 2003, Gaussian, Inc.),
 the Gaussian(R) 98 system (copyright 1998, Gaussian, Inc.),
 the Gaussian(R) 94 system (copyright 1995, Gaussian, Inc.),
 the Gaussian 92(TM) system (copyright 1992, Gaussian, Inc.),
 the Gaussian 90(TM) system (copyright 1990, Gaussian, Inc.),
 the Gaussian 88(TM) system (copyright 1988, Gaussian, Inc.),
 the Gaussian 86(TM) system (copyright 1986, Carnegie Mellon
 University), and the Gaussian 82(TM) system (copyright 1983,
 Carnegie Mellon University). Gaussian is a federally registered
 trademark of Gaussian, Inc.
  
 This software contains proprietary and confidential information,
 including trade secrets, belonging to Gaussian, Inc.
  
 This software is provided under written license and may be
 used, copied, transmitted, or stored only in accord with that
 written license.
  
 The following legend is applicable only to US Government
 contracts under FAR:
  
                    RESTRICTED RIGHTS LEGEND
  
 Use, reproduction and disclosure by the US Government is
 subject to restrictions as set forth in subparagraphs (a)
 and (c) of the Commercial Computer Software - Restricted
 Rights clause in FAR 52.227-19.
  
 Gaussian, Inc.
 340 Quinnipiac St., Bldg. 40, Wallingford CT 06492
  
  
 ---------------------------------------------------------------
 Warning -- This program may not be used in any manner that
 competes with the business of Gaussian, Inc. or will provide
 assistance to any competitor of Gaussian, Inc.  The licensee
 of this program is prohibited from giving any competitor of
 Gaussian, Inc. access to this program.  By using this program,
 the user acknowledges that Gaussian, Inc. is engaged in the
 business of creating and licensing software in the field of
 computational chemistry and represents and warrants to the
 licensee that it is not a competitor of Gaussian, Inc. and that
 it will not use this program in any manner prohibited above.
 ---------------------------------------------------------------
  

 Cite this work as:
 Gaussian 16, Revision A.03,
 M. J. Frisch, G. W. Trucks, H. B. Schlegel, G. E. Scuseria, 
 M. A. Robb, J. R. Cheeseman, G. Scalmani, V. Barone, 
 G. A. Petersson, H. Nakatsuji, X. Li, M. Caricato, A. V. Marenich, 
 J. Bloino, B. G. Janesko, R. Gomperts, B. Mennucci, H. P. Hratchian, 
 J. V. Ortiz, A. F. Izmaylov, J. L. Sonnenberg, D. Williams-Young, 
 F. Ding, F. Lipparini, F. Egidi, J. Goings, B. Peng, A. Petrone, 
 T. Henderson, D. Ranasinghe, V. G. Zakrzewski, J. Gao, N. Rega, 
 G. Zheng, W. Liang, M. Hada, M. Ehara, K. Toyota, R. Fukuda, 
 J. Hasegawa, M. Ishida, T. Nakajima, Y. Honda, O. Kitao, H. Nakai, 
 T. Vreven, K. Throssell, J. A. Montgomery, Jr., J. E. Peralta, 
 F. Ogliaro, M. J. Bearpark, J. J. Heyd, E. N. Brothers, K. N. Kudin, 
 V. N. Staroverov, T. A. Keith, R. Kobayashi, J. Normand, 
 K. Raghavachari, A. P. Rendell, J. C. Burant, S. S. Iyengar, 
 J. Tomasi, M. Cossi, J. M. Millam, M. Klene, C. Adamo, R. Cammi, 
 J. W. Ochterski, R. L. Martin, K. Morokuma, O. Farkas, 
 J. B. Foresman, and D. J. Fox, Gaussian, Inc., Wallingford CT, 2016.
 
 ******************************************
 Gaussian 16:  ES64L-G16RevA.03 25-Dec-2016
                13-Jan-2022 
 ******************************************
 %chk=ketone.chk
 %mem=10gb
 %nprocshared=28
 Will use up to   28 processors via shared memory.
 -------------------------------------------------------------------
 #p wb97xd def2svp scf=xqc stable=opt scrf=(smd, solvent=2-propanol)
 -------------------------------------------------------------------
 1/38=1,172=1/1;
 2/12=2,17=6,18=5,40=1/2;
 3/5=43,7=101,11=2,25=1,30=1,70=32201,72=73,74=-58/1,2,3;
 4//1;
 5/5=2,8=3,13=1,38=5,53=73/2,8;
 6/7=2,8=2,9=2,10=2,28=1/1;
 8/6=1,10=90,11=11/1;
 9/8=-3,42=1,46=1/14;
 5/5=2,8=3,17=40,38=5,53=73/8(-2);
 6/7=2,8=2,9=2,10=2,28=1/1;
 99/5=1,9=1/99;
 Leave Link    1 at Thu Jan 13 20:53:06 2022, MaxMem=  1342177280 cpu:               1.9 elap:               0.1
 (Enter /curc/sw/gaussian/16/g16/l101.exe)
 ----------
 [No Title]
 ----------
 Symbolic Z-matrix:
 Charge =  2 Multiplicity = 4
 Co                    0.        0.        0. 
 
 ITRead=  0
 MicOpt= -1
 NAtoms=      1 NQM=        1 NQMF=       0 NMMI=      0 NMMIF=      0
                NMic=       0 NMicF=      0.
                    Isotopes and Nuclear Properties:
 (Nuclear quadrupole moments (NQMom) in fm**2, nuclear magnetic moments (NMagM)
  in nuclear magnetons)

  Atom         1
 IAtWgt=          59
 AtmWgt=  58.9331978
 NucSpn=           7
 AtZEff=  -0.0000000
 NQMom=   42.0000000
 NMagM=    4.6270000
 AtZNuc=  27.0000000
 Leave Link  101 at Thu Jan 13 20:53:07 2022, MaxMem=  1342177280 cpu:               4.3 elap:               0.2
 (Enter /curc/sw/gaussian/16/g16/l202.exe)
                          Input orientation:                          
 ---------------------------------------------------------------------
 Center     Atomic      Atomic             Coordinates (Angstroms)
 Number     Number       Type             X           Y           Z
 ---------------------------------------------------------------------
      1         27           0        0.000000    0.000000    0.000000
 ---------------------------------------------------------------------
 Stoichiometry    Co(2+,4)
 Framework group  OH[O(Co)]
 Deg. of freedom     0
 Full point group                 OH      NOp  48
 Largest Abelian subgroup         D2H     NOp   8
 Largest concise Abelian subgroup C1      NOp   1
                         Standard orientation:                         
 ---------------------------------------------------------------------
 Center     Atomic      Atomic             Coordinates (Angstroms)
 Number     Number       Type             X           Y           Z
 ---------------------------------------------------------------------
      1         27           0        0.000000    0.000000    0.000000
 ---------------------------------------------------------------------
 Leave Link  202 at Thu Jan 13 20:53:07 2022, MaxMem=  1342177280 cpu:               0.8 elap:               0.1
 (Enter /curc/sw/gaussian/16/g16/l301.exe)
 Standard basis: def2SVP (5D, 7F)
 Ernie: Thresh=  0.10000D-02 Tol=  0.10000D-05 Strict=F.
 There are    11 symmetry adapted cartesian basis functions of AG  symmetry.
 There are     2 symmetry adapted cartesian basis functions of B1G symmetry.
 There are     2 symmetry adapted cartesian basis functions of B2G symmetry.
 There are     2 symmetry adapted cartesian basis functions of B3G symmetry.
 There are     1 symmetry adapted cartesian basis functions of AU  symmetry.
 There are     6 symmetry adapted cartesian basis functions of B1U symmetry.
 There are     6 symmetry adapted cartesian basis functions of B2U symmetry.
 There are     6 symmetry adapted cartesian basis functions of B3U symmetry.
 There are     9 symmetry adapted basis functions of AG  symmetry.
 There are     2 symmetry adapted basis functions of B1G symmetry.
 There are     2 symmetry adapted basis functions of B2G symmetry.
 There are     2 symmetry adapted basis functions of B3G symmetry.
 There are     1 symmetry adapted basis functions of AU  symmetry.
 There are     5 symmetry adapted basis functions of B1U symmetry.
 There are     5 symmetry adapted basis functions of B2U symmetry.
 There are     5 symmetry adapted basis functions of B3U symmetry.
    31 basis functions,    81 primitive gaussians,    36 cartesian basis functions
    14 alpha electrons       11 beta electrons
       nuclear repulsion energy         0.0000000000 Hartrees.
 IExCor= 4639 DFT=T Ex+Corr=wB97XD ExCW=0 ScaHFX=  1.000000
 ScaDFX=  1.000000  1.000000  1.000000  1.000000 ScalE2=  1.000000  1.000000
 IRadAn=      5 IRanWt=     -1 IRanGd=            0 ICorTp=0 IEmpDi=121
 HFx  wShort=  0.000000 wLong=  0.200000 cFull=  0.222036 cShort=  0.000000 cLong=  0.777964
 DFx  wShort=  0.000000 wLong=  0.200000 cFull=  0.000000 cShort=  0.000000 cLong=  1.000000
 NAtoms=    1 NActive=    1 NUniq=    1 SFac= 1.00D+00 NAtFMM=   60 NAOKFM=F Big=F
 Integral buffers will be    131072 words long.
 Raffenetti 2 integral format.
 Two-electron integral symmetry is turned on.
 R6Disp:  Grimme-D2 Dispersion energy=        0.0000000000 Hartrees.
 Nuclear repulsion after empirical dispersion term =        0.0000000000 Hartrees.
 ------------------------------------------------------------------------------
 Polarizable Continuum Model (PCM)
 =================================
 Model                : PCM.
 Atomic radii         : SMD-Coulomb.
 Polarization charges : Total charges.
 Charge compensation  : None.
 Solution method      : On-the-fly selection.
 Cavity type          : VdW (van der Waals Surface) (Alpha=1.000).
 Cavity algorithm     : GePol (No added spheres)
                        Default sphere list used, NSphG=    1.
                        Lebedev-Laikov grids with approx.  5.0 points / Ang**2.
                        Smoothing algorithm: York/Karplus (Gamma=1.0000).
                        Polarization charges: spherical gaussians, with
                                              point-specific exponents (IZeta= 3).
                        Self-potential: point-specific (ISelfS= 7).
                        Self-field    : sphere-specific E.n sum rule (ISelfD= 2).
 Solvent              : 2-Propanol, Eps=  19.264000 Eps(inf)=   1.897782
 ------------------------------------------------------------------------------
 Spheres list:
 ISph  on   Nord     Re0    Alpha      Xe            Ye            Ze
    1  Co      1    1.4360  1.000      0.000000      0.000000      0.000000
 ------------------------------------------------------------------------------
 GePol: Number of generator spheres                  =       1
 GePol: Total number of spheres                      =       1
 GePol: Number of exposed spheres                    =       1 (100.00%)
 GePol: Number of points                             =     146
 GePol: Average weight of points                     =       0.18
 GePol: Minimum weight of points                     =   0.16D-01
 GePol: Maximum weight of points                     =    0.19628
 GePol: Number of points with low weight             =       0
 GePol: Fraction of low-weight points (<1% of avg)   =       0.00%
 GePol: Cavity surface area                          =     25.913 Ang**2
 GePol: Cavity volume                                =     12.404 Ang**3
 ------------------------------------------------------------------------------
 Atomic radii for non-electrostatic terms: SMD-CDS.
 ------------------------------------------------------------------------------
 PCM non-electrostatic energy =         0.0007118723 Hartrees.
 Nuclear repulsion after PCM non-electrostatic terms =        0.0007118723 Hartrees.
 Leave Link  301 at Thu Jan 13 20:53:07 2022, MaxMem=  1342177280 cpu:               1.5 elap:               0.1
 (Enter /curc/sw/gaussian/16/g16/l302.exe)
 NPDir=0 NMtPBC=     1 NCelOv=     1 NCel=       1 NClECP=     1 NCelD=      1
         NCelK=      1 NCelE2=     1 NClLst=     1 CellRange=     0.0.
 One-electron integrals computed using PRISM.
 One-electron integral symmetry used in STVInt
  48 Symmetry operations used in ECPInt.
 ECPInt:  NShTT=      66 NPrTT=     475 LenC2=      67 LenP2D=     475.
 LDataN:  DoStor=T MaxTD1= 6 Len=  172
 NBasis=    31 RedAO= T EigKep=  1.40D-01  NBF=     9     2     2     2     1     5     5     5
 NBsUse=    31 1.00D-06 EigRej= -1.00D+00 NBFU=     9     2     2     2     1     5     5     5
 Precomputing XC quadrature grid using
 IXCGrd= 4 IRadAn=           5 IRanWt=          -1 IRanGd=           0 AccXCQ= 0.00D+00.
 Generated NRdTot=       0 NPtTot=           0 NUsed=           0 NTot=          32
 NSgBfM=    36    36    36    36    36 MxSgAt=     1 MxSgA2=     1.
 Leave Link  302 at Thu Jan 13 20:53:08 2022, MaxMem=  1342177280 cpu:               5.8 elap:               0.3
 (Enter /curc/sw/gaussian/16/g16/l303.exe)
 DipDrv:  MaxL=1.
 Leave Link  303 at Thu Jan 13 20:53:08 2022, MaxMem=  1342177280 cpu:               1.9 elap:               0.1
 (Enter /curc/sw/gaussian/16/g16/l401.exe)
 ExpMin= 3.59D-02 ExpMax= 6.59D+04 ExpMxC= 9.90D+03 IAcc=3 IRadAn=         5 AccDes= 0.00D+00
 Harris functional with IExCor= 4639 and IRadAn=       5 diagonalized for initial guess.
 HarFok:  IExCor= 4639 AccDes= 0.00D+00 IRadAn=         5 IDoV= 1 UseB2=F ITyADJ=14
 ICtDFT=  3500011 ScaDFX=  1.000000  1.000000  1.000000  1.000000
 FoFCou: FMM=F IPFlag=           0 FMFlag=      100000 FMFlg1=           0
         NFxFlg=           0 DoJE=T BraDBF=F KetDBF=T FulRan=T
         wScrn=  0.000000 ICntrl=       500 IOpCl=  0 I1Cent=   200000004 NGrid=           0
         NMat0=    1 NMatS0=      1 NMatT0=    0 NMatD0=    1 NMtDS0=    0 NMtDT0=    0
 Petite list used in FoFCou.
 Harris En= -1367.50586591945    
 JPrj=0 DoOrth=F DoCkMO=F.
 Initial guess orbital symmetries:
 Alpha Orbitals:
       Occupied  (A1G) (A1G) (T1U) (T1U) (T1U) (A1G) (T1U) (T1U)
                 (T1U) (A1G) (T2G) (T2G) (T2G) (EG)
       Virtual   (EG) (A1G) (T1U) (T1U) (T1U) (T2G) (T2G) (T2G)
                 (EG) (EG) (T2U) (T2U) (T2U) (A2U) (T1U) (T1U)
                 (T1U)
 Beta  Orbitals:
       Occupied  (A1G) (A1G) (T1U) (T1U) (T1U) (A1G) (T1U) (T1U)
                 (T1U) (A1G) (T2G)
       Virtual   (T2G) (T2G) (EG) (EG) (A1G) (T1U) (T1U) (T1U)
                 (T2G) (T2G) (T2G) (EG) (EG) (T2U) (T2U) (T2U)
                 (A2U) (T1U) (T1U) (T1U)
 Initial guess <Sx>= 0.0000 <Sy>= 0.0000 <Sz>= 1.5000 <S**2>= 3.7500 S= 1.5000
 Leave Link  401 at Thu Jan 13 20:53:09 2022, MaxMem=  1342177280 cpu:               7.1 elap:               0.3
 (Enter /curc/sw/gaussian/16/g16/l502.exe)
 Keep R1 and R2 ints in memory in symmetry-blocked form, NReq=24406398.
 FoFCou: FMM=F IPFlag=           0 FMFlag=           0 FMFlg1=           0
         NFxFlg=           0 DoJE=F BraDBF=F KetDBF=F FulRan=T
         wScrn=  0.000000 ICntrl=       600 IOpCl=  0 I1Cent=           0 NGrid=           0
         NMat0=    1 NMatS0=    496 NMatT0=    0 NMatD0=    1 NMtDS0=    0 NMtDT0=    0
 Petite list used in FoFCou.
 UHF open shell SCF:
 Using DIIS extrapolation, IDIIS=  1040.
 NGot=  1342177280 LenX=  1342134430 LenY=  1342132693
 Requested convergence on RMS density matrix=1.00D-08 within  32 cycles.
 Requested convergence on MAX density matrix=1.00D-06.
 Requested convergence on             energy=1.00D-06.
 No special actions if energy rises.

 Cycle   1  Pass 1  IDiag  1:
 Density matrix breaks symmetry, PCut= 1.00D-04
 Density has only Abelian symmetry.
 Inv3:  Mode=1 IEnd=       63948.
 Iteration    1 A*A^-1 deviation from unit magnitude is 2.44D-15 for     30.
 Iteration    1 A*A^-1 deviation from orthogonality  is 8.85D-16 for    141     17.
 Iteration    1 A^-1*A deviation from unit magnitude is 2.33D-15 for     18.
 Iteration    1 A^-1*A deviation from orthogonality  is 7.59D-16 for    101     53.
 E= -1380.17345033911    
 DIIS: error= 4.23D-01 at cycle   1 NSaved=   1.
 NSaved= 1 IEnMin= 1 EnMin= -1380.17345033911     IErMin= 1 ErrMin= 4.23D-01
 ErrMax= 4.23D-01  0.00D+00 EMaxC= 1.00D-01 BMatC= 8.37D+00 BMatP= 8.37D+00
 IDIUse=3 WtCom= 0.00D+00 WtEn= 1.00D+00
 Coeff-Com:  0.100D+01
 Coeff-En:   0.100D+01
 Coeff:      0.100D+01
 Gap=     0.297 Goal=   None    Shift=    0.000
 Gap=     0.031 Goal=   None    Shift=    0.000
 GapD=    0.031 DampG=0.250 DampE=0.125 DampFc=0.1250 IDamp=-1.
 Damping current iteration by 1.25D-01
 RMSDP=4.89D-02 MaxDP=9.07D-01              OVMax= 7.50D-02

 Cycle   2  Pass 1  IDiag  1:
 Density matrix breaks symmetry, PCut= 1.00D-04
 Density has only Abelian symmetry.
 E= -1380.64751957761     Delta-E=       -0.474069238505 Rises=F Damp=T
 DIIS: error= 3.20D-01 at cycle   2 NSaved=   2.
 NSaved= 2 IEnMin= 2 EnMin= -1380.64751957761     IErMin= 2 ErrMin= 3.20D-01
 ErrMax= 3.20D-01  0.00D+00 EMaxC= 1.00D-01 BMatC= 4.77D+00 BMatP= 8.37D+00
 IDIUse=3 WtCom= 0.00D+00 WtEn= 1.00D+00
 Coeff-Com: -0.306D+01 0.406D+01
 Coeff-En:   0.000D+00 0.100D+01
 Coeff:      0.000D+00 0.100D+01
 Gap=     1.034 Goal=   None    Shift=    0.000
 Gap=     0.088 Goal=   None    Shift=    0.000
 RMSDP=4.11D-02 MaxDP=7.68D-01 DE=-4.74D-01 OVMax= 2.53D-02

 Cycle   3  Pass 1  IDiag  1:
 Density matrix breaks symmetry, PCut= 1.00D-04
 Density has only Abelian symmetry.
 E= -1381.70524687481     Delta-E=       -1.057727297203 Rises=F Damp=F
 DIIS: error= 2.12D-01 at cycle   3 NSaved=   3.
 NSaved= 3 IEnMin= 3 EnMin= -1381.70524687481     IErMin= 3 ErrMin= 2.12D-01
 ErrMax= 2.12D-01  0.00D+00 EMaxC= 1.00D-01 BMatC= 2.90D+00 BMatP= 4.77D+00
 IDIUse=3 WtCom= 0.00D+00 WtEn= 1.00D+00
 EnCoef did   100 forward-backward iterations
 Coeff-Com: -0.335D+01 0.440D+01-0.560D-01
 Coeff-En:   0.198D+00 0.414D-02 0.798D+00
 Coeff:      0.198D+00 0.414D-02 0.798D+00
 Gap=     0.185 Goal=   None    Shift=    0.000
 Gap=     0.328 Goal=   None    Shift=    0.000
 RMSDP=2.17D-02 MaxDP=2.36D-01 DE=-1.06D+00 OVMax= 5.45D-02

 Cycle   4  Pass 1  IDiag  1:
 Density matrix breaks symmetry, PCut= 1.00D-04
 Density has only Abelian symmetry.
 E= -1382.34300839183     Delta-E=       -0.637761517012 Rises=F Damp=F
 DIIS: error= 3.10D-02 at cycle   4 NSaved=   4.
 NSaved= 4 IEnMin= 4 EnMin= -1382.34300839183     IErMin= 4 ErrMin= 3.10D-02
 ErrMax= 3.10D-02  0.00D+00 EMaxC= 1.00D-01 BMatC= 6.56D-02 BMatP= 2.90D+00
 IDIUse=3 WtCom= 6.90D-01 WtEn= 3.10D-01
 Coeff-Com: -0.401D+00 0.512D+00 0.923D-01 0.796D+00
 Coeff-En:   0.000D+00 0.000D+00 0.000D+00 0.100D+01
 Coeff:     -0.276D+00 0.353D+00 0.637D-01 0.859D+00
 Gap=     0.485 Goal=   None    Shift=    0.000
 Gap=     0.372 Goal=   None    Shift=    0.000
 RMSDP=3.38D-03 MaxDP=4.00D-02 DE=-6.38D-01 OVMax= 1.06D-02

 Cycle   5  Pass 1  IDiag  1:
 Density matrix breaks symmetry, PCut= 1.00D-04
 Density has only Abelian symmetry.
 E= -1382.35204067141     Delta-E=       -0.009032279581 Rises=F Damp=F
 DIIS: error= 1.37D-02 at cycle   5 NSaved=   5.
 NSaved= 5 IEnMin= 5 EnMin= -1382.35204067141     IErMin= 5 ErrMin= 1.37D-02
 ErrMax= 1.37D-02  0.00D+00 EMaxC= 1.00D-01 BMatC= 1.29D-02 BMatP= 6.56D-02
 IDIUse=3 WtCom= 8.63D-01 WtEn= 1.37D-01
 Coeff-Com: -0.190D+00 0.248D+00-0.628D-01 0.362D-01 0.969D+00
 Coeff-En:   0.000D+00 0.000D+00 0.000D+00 0.000D+00 0.100D+01
 Coeff:     -0.164D+00 0.214D+00-0.542D-01 0.313D-01 0.973D+00
 Gap=     0.470 Goal=   None    Shift=    0.000
 Gap=     0.374 Goal=   None    Shift=    0.000
 RMSDP=1.23D-03 MaxDP=3.26D-02 DE=-9.03D-03 OVMax= 3.92D-02

 Cycle   6  Pass 1  IDiag  1:
 Density matrix breaks symmetry, PCut= 1.00D-04
 Density has only Abelian symmetry.
 E= -1382.35508538170     Delta-E=       -0.003044710289 Rises=F Damp=F
 DIIS: error= 6.15D-03 at cycle   6 NSaved=   6.
 NSaved= 6 IEnMin= 6 EnMin= -1382.35508538170     IErMin= 6 ErrMin= 6.15D-03
 ErrMax= 6.15D-03  0.00D+00 EMaxC= 1.00D-01 BMatC= 1.86D-03 BMatP= 1.29D-02
 IDIUse=3 WtCom= 9.39D-01 WtEn= 6.15D-02
 Coeff-Com: -0.811D-01 0.110D+00 0.314D-01-0.143D+00-0.171D+01 0.279D+01
 Coeff-En:   0.000D+00 0.000D+00 0.000D+00 0.000D+00 0.000D+00 0.100D+01
 Coeff:     -0.761D-01 0.103D+00 0.294D-01-0.134D+00-0.160D+01 0.268D+01
 Gap=     0.470 Goal=   None    Shift=    0.000
 Gap=     0.383 Goal=   None    Shift=    0.000
 RMSDP=2.41D-03 MaxDP=6.52D-02 DE=-3.04D-03 OVMax= 9.33D-02

 Cycle   7  Pass 1  IDiag  1:
 Density matrix breaks symmetry, PCut= 1.00D-04
 Density has only Abelian symmetry.
 E= -1382.35743151500     Delta-E=       -0.002346133303 Rises=F Damp=F
 DIIS: error= 4.28D-03 at cycle   7 NSaved=   7.
 NSaved= 7 IEnMin= 7 EnMin= -1382.35743151500     IErMin= 7 ErrMin= 4.28D-03
 ErrMax= 4.28D-03  0.00D+00 EMaxC= 1.00D-01 BMatC= 9.04D-04 BMatP= 1.86D-03
 IDIUse=3 WtCom= 9.57D-01 WtEn= 4.28D-02
 Coeff-Com:  0.702D-04 0.244D-02 0.261D-01 0.677D-01-0.385D+00-0.125D+01
 Coeff-Com:  0.253D+01
 Coeff-En:   0.000D+00 0.000D+00 0.000D+00 0.000D+00 0.000D+00 0.000D+00
 Coeff-En:   0.100D+01
 Coeff:      0.672D-04 0.233D-02 0.250D-01 0.648D-01-0.369D+00-0.119D+01
 Coeff:      0.247D+01
 Gap=     0.471 Goal=   None    Shift=    0.000
 Gap=     0.401 Goal=   None    Shift=    0.000
 RMSDP=3.68D-03 MaxDP=9.55D-02 DE=-2.35D-03 OVMax= 1.43D-01

 Cycle   8  Pass 1  IDiag  1:
 Density matrix breaks symmetry, PCut= 1.00D-04
 Density has only Abelian symmetry.
 E= -1382.35935197933     Delta-E=       -0.001920464329 Rises=F Damp=F
 DIIS: error= 1.30D-03 at cycle   8 NSaved=   8.
 NSaved= 8 IEnMin= 8 EnMin= -1382.35935197933     IErMin= 8 ErrMin= 1.30D-03
 ErrMax= 1.30D-03  0.00D+00 EMaxC= 1.00D-01 BMatC= 9.66D-05 BMatP= 9.04D-04
 IDIUse=3 WtCom= 9.87D-01 WtEn= 1.30D-02
 Coeff-Com: -0.158D-02 0.379D-02 0.229D-01 0.549D-01-0.368D+00-0.684D+00
 Coeff-Com:  0.165D+01 0.324D+00
 Coeff-En:   0.000D+00 0.000D+00 0.000D+00 0.000D+00 0.000D+00 0.000D+00
 Coeff-En:   0.000D+00 0.100D+01
 Coeff:     -0.156D-02 0.374D-02 0.226D-01 0.542D-01-0.363D+00-0.676D+00
 Coeff:      0.163D+01 0.333D+00
 Gap=     0.469 Goal=   None    Shift=    0.000
 Gap=     0.400 Goal=   None    Shift=    0.000
 RMSDP=8.25D-05 MaxDP=1.95D-03 DE=-1.92D-03 OVMax= 3.09D-03

 Cycle   9  Pass 1  IDiag  1:
 Density matrix breaks symmetry, PCut= 1.00D-04
 Density has only Abelian symmetry.
 E= -1382.35937382646     Delta-E=       -0.000021847129 Rises=F Damp=F
 DIIS: error= 1.23D-03 at cycle   9 NSaved=   9.
 NSaved= 9 IEnMin= 9 EnMin= -1382.35937382646     IErMin= 9 ErrMin= 1.23D-03
 ErrMax= 1.23D-03  0.00D+00 EMaxC= 1.00D-01 BMatC= 5.86D-05 BMatP= 9.66D-05
 IDIUse=3 WtCom= 9.88D-01 WtEn= 1.23D-02
 Coeff-Com: -0.590D-02 0.749D-02 0.174D-02-0.145D-02 0.246D-01-0.214D-01
 Coeff-Com: -0.341D+00-0.318D+01 0.451D+01
 Coeff-En:   0.000D+00 0.000D+00 0.000D+00 0.000D+00 0.000D+00 0.000D+00
 Coeff-En:   0.000D+00 0.000D+00 0.100D+01
 Coeff:     -0.583D-02 0.740D-02 0.172D-02-0.144D-02 0.243D-01-0.212D-01
 Coeff:     -0.337D+00-0.314D+01 0.447D+01
 Gap=     0.473 Goal=   None    Shift=    0.000
 Gap=     0.403 Goal=   None    Shift=    0.000
 RMSDP=1.43D-03 MaxDP=3.41D-02 DE=-2.18D-05 OVMax= 5.56D-02

 Cycle  10  Pass 1  IDiag  1:
 Density matrix breaks symmetry, PCut= 1.00D-04
 Density has only Abelian symmetry.
 E= -1382.35954112716     Delta-E=       -0.000167300699 Rises=F Damp=F
 DIIS: error= 2.91D-04 at cycle  10 NSaved=  10.
 NSaved=10 IEnMin=10 EnMin= -1382.35954112716     IErMin=10 ErrMin= 2.91D-04
 ErrMax= 2.91D-04  0.00D+00 EMaxC= 1.00D-01 BMatC= 7.58D-06 BMatP= 5.86D-05
 IDIUse=3 WtCom= 9.97D-01 WtEn= 2.91D-03
 Coeff-Com:  0.648D-03-0.107D-02-0.661D-03-0.769D-03-0.737D-02 0.366D-01
 Coeff-Com: -0.496D-01-0.101D+01 0.107D+01 0.959D+00
 Coeff-En:   0.000D+00 0.000D+00 0.000D+00 0.000D+00 0.000D+00 0.000D+00
 Coeff-En:   0.000D+00 0.000D+00 0.000D+00 0.100D+01
 Coeff:      0.647D-03-0.107D-02-0.659D-03-0.767D-03-0.735D-02 0.365D-01
 Coeff:     -0.495D-01-0.100D+01 0.107D+01 0.959D+00
 Gap=     0.476 Goal=   None    Shift=    0.000
 Gap=     0.402 Goal=   None    Shift=    0.000
 RMSDP=6.29D-05 MaxDP=1.36D-03 DE=-1.67D-04 OVMax= 2.07D-03

 Cycle  11  Pass 1  IDiag  1:
 Density matrix breaks symmetry, PCut= 1.00D-04
 Density has only Abelian symmetry.
 E= -1382.35954250623     Delta-E=       -0.000001379073 Rises=F Damp=F
 DIIS: error= 8.22D-05 at cycle  11 NSaved=  11.
 NSaved=11 IEnMin=11 EnMin= -1382.35954250623     IErMin=11 ErrMin= 8.22D-05
 ErrMax= 8.22D-05  0.00D+00 EMaxC= 1.00D-01 BMatC= 3.16D-07 BMatP= 7.58D-06
 IDIUse=1 WtCom= 1.00D+00 WtEn= 0.00D+00
 Coeff-Com:  0.790D-03-0.107D-02 0.206D-03 0.186D-02 0.324D-02-0.430D-01
 Coeff-Com:  0.874D-01 0.291D+00-0.438D+00-0.210D-01 0.112D+01
 Coeff:      0.790D-03-0.107D-02 0.206D-03 0.186D-02 0.324D-02-0.430D-01
 Coeff:      0.874D-01 0.291D+00-0.438D+00-0.210D-01 0.112D+01
 Gap=     0.477 Goal=   None    Shift=    0.000
 Gap=     0.402 Goal=   None    Shift=    0.000
 RMSDP=1.94D-05 MaxDP=4.05D-04 DE=-1.38D-06 OVMax= 6.68D-04

 Cycle  12  Pass 1  IDiag  1:
 Density matrix breaks symmetry, PCut= 1.00D-04
 Density has only Abelian symmetry.
 E= -1382.35954258816     Delta-E=       -0.000000081934 Rises=F Damp=F
 DIIS: error= 3.51D-05 at cycle  12 NSaved=  12.
 NSaved=12 IEnMin=12 EnMin= -1382.35954258816     IErMin=12 ErrMin= 3.51D-05
 ErrMax= 3.51D-05  0.00D+00 EMaxC= 1.00D-01 BMatC= 8.03D-08 BMatP= 3.16D-07
 IDIUse=1 WtCom= 1.00D+00 WtEn= 0.00D+00
 Coeff-Com: -0.102D-03 0.159D-03-0.912D-04-0.479D-03 0.454D-03 0.364D-02
 Coeff-Com: -0.102D-01-0.131D+00 0.163D+00 0.100D+00-0.807D+00 0.168D+01
 Coeff:     -0.102D-03 0.159D-03-0.912D-04-0.479D-03 0.454D-03 0.364D-02
 Coeff:     -0.102D-01-0.131D+00 0.163D+00 0.100D+00-0.807D+00 0.168D+01
 Gap=     0.477 Goal=   None    Shift=    0.000
 Gap=     0.402 Goal=   None    Shift=    0.000
 RMSDP=6.31D-06 MaxDP=1.08D-04 DE=-8.19D-08 OVMax= 1.20D-04

 Cycle  13  Pass 1  IDiag  1:
 Density matrix breaks symmetry, PCut= 1.00D-04
 Density has only Abelian symmetry.
 E= -1382.35954260547     Delta-E=       -0.000000017308 Rises=F Damp=F
 DIIS: error= 9.95D-06 at cycle  13 NSaved=  13.
 NSaved=13 IEnMin=13 EnMin= -1382.35954260547     IErMin=13 ErrMin= 9.95D-06
 ErrMax= 9.95D-06  0.00D+00 EMaxC= 1.00D-01 BMatC= 5.95D-09 BMatP= 8.03D-08
 IDIUse=1 WtCom= 1.00D+00 WtEn= 0.00D+00
 Coeff-Com: -0.686D-04 0.927D-04 0.133D-04-0.619D-04-0.604D-03 0.369D-02
 Coeff-Com: -0.684D-02 0.208D-01-0.142D-01-0.523D-01 0.192D+00-0.457D+00
 Coeff-Com:  0.131D+01
 Coeff:     -0.686D-04 0.927D-04 0.133D-04-0.619D-04-0.604D-03 0.369D-02
 Coeff:     -0.684D-02 0.208D-01-0.142D-01-0.523D-01 0.192D+00-0.457D+00
 Coeff:      0.131D+01
 Gap=     0.477 Goal=   None    Shift=    0.000
 Gap=     0.402 Goal=   None    Shift=    0.000
 RMSDP=1.73D-06 MaxDP=3.37D-05 DE=-1.73D-08 OVMax= 5.50D-05

 Cycle  14  Pass 1  IDiag  1:
 Density matrix breaks symmetry, PCut= 1.00D-04
 Density has only Abelian symmetry.
 E= -1382.35954260670     Delta-E=       -0.000000001223 Rises=F Damp=F
 DIIS: error= 2.91D-06 at cycle  14 NSaved=  14.
 NSaved=14 IEnMin=14 EnMin= -1382.35954260670     IErMin=14 ErrMin= 2.91D-06
 ErrMax= 2.91D-06  0.00D+00 EMaxC= 1.00D-01 BMatC= 5.30D-10 BMatP= 5.95D-09
 IDIUse=1 WtCom= 1.00D+00 WtEn= 0.00D+00
 Coeff-Com: -0.237D-04 0.317D-04 0.514D-05-0.272D-04-0.213D-03 0.923D-03
 Coeff-Com: -0.159D-02 0.297D-02-0.710D-03-0.867D-02 0.193D-01-0.357D-01
 Coeff-Com: -0.380D-01 0.106D+01
 Coeff:     -0.237D-04 0.317D-04 0.514D-05-0.272D-04-0.213D-03 0.923D-03
 Coeff:     -0.159D-02 0.297D-02-0.710D-03-0.867D-02 0.193D-01-0.357D-01
 Coeff:     -0.380D-01 0.106D+01
 Gap=     0.477 Goal=   None    Shift=    0.000
 Gap=     0.402 Goal=   None    Shift=    0.000
 RMSDP=2.00D-07 MaxDP=2.63D-06 DE=-1.22D-09 OVMax= 7.86D-07

 Cycle  15  Pass 1  IDiag  1:
 Density matrix breaks symmetry, PCut= 1.00D-04
 Density has only Abelian symmetry.
 E= -1382.35954260678     Delta-E=       -0.000000000087 Rises=F Damp=F
 DIIS: error= 9.31D-07 at cycle  15 NSaved=  15.
 NSaved=15 IEnMin=15 EnMin= -1382.35954260678     IErMin=15 ErrMin= 9.31D-07
 ErrMax= 9.31D-07  0.00D+00 EMaxC= 1.00D-01 BMatC= 5.62D-11 BMatP= 5.30D-10
 IDIUse=1 WtCom= 1.00D+00 WtEn= 0.00D+00
 Coeff-Com:  0.919D-06-0.117D-05-0.723D-06-0.486D-05 0.149D-04-0.323D-04
 Coeff-Com: -0.270D-04-0.248D-02 0.297D-02 0.224D-02-0.152D-01 0.382D-01
 Coeff-Com: -0.596D-01-0.274D+00 0.131D+01
 Coeff:      0.919D-06-0.117D-05-0.723D-06-0.486D-05 0.149D-04-0.323D-04
 Coeff:     -0.270D-04-0.248D-02 0.297D-02 0.224D-02-0.152D-01 0.382D-01
 Coeff:     -0.596D-01-0.274D+00 0.131D+01
 Gap=     0.477 Goal=   None    Shift=    0.000
 Gap=     0.402 Goal=   None    Shift=    0.000
 RMSDP=8.45D-08 MaxDP=8.63D-07 DE=-8.69D-11 OVMax= 3.88D-07

 Cycle  16  Pass 1  IDiag  1:
 Density matrix breaks symmetry, PCut= 1.00D-04
 Density has only Abelian symmetry.
 E= -1382.35954260679     Delta-E=       -0.000000000011 Rises=F Damp=F
 DIIS: error= 7.33D-08 at cycle  16 NSaved=  16.
 NSaved=16 IEnMin=16 EnMin= -1382.35954260679     IErMin=16 ErrMin= 7.33D-08
 ErrMax= 7.33D-08  0.00D+00 EMaxC= 1.00D-01 BMatC= 4.10D-13 BMatP= 5.62D-11
 IDIUse=1 WtCom= 1.00D+00 WtEn= 0.00D+00
 Coeff-Com:  0.179D-06-0.189D-06 0.748D-06 0.507D-05 0.654D-05-0.887D-04
 Coeff-Com:  0.126D-03 0.447D-03-0.619D-03-0.912D-03 0.619D-02-0.174D-01
 Coeff-Com:  0.312D-01 0.143D+00-0.807D+00 0.165D+01
 Coeff:      0.179D-06-0.189D-06 0.748D-06 0.507D-05 0.654D-05-0.887D-04
 Coeff:      0.126D-03 0.447D-03-0.619D-03-0.912D-03 0.619D-02-0.174D-01
 Coeff:      0.312D-01 0.143D+00-0.807D+00 0.165D+01
 Gap=     0.477 Goal=   None    Shift=    0.000
 Gap=     0.402 Goal=   None    Shift=    0.000
 RMSDP=2.20D-08 MaxDP=4.42D-07 DE=-1.11D-11 OVMax= 1.72D-07

 Cycle  17  Pass 1  IDiag  1:
 Density matrix breaks symmetry, PCut= 1.00D-04
 Density has only Abelian symmetry.
 E= -1382.35954260679     Delta-E=        0.000000000001 Rises=F Damp=F
 DIIS: error= 4.17D-08 at cycle  17 NSaved=  17.
 NSaved=17 IEnMin=16 EnMin= -1382.35954260679     IErMin=17 ErrMin= 4.17D-08
 ErrMax= 4.17D-08  0.00D+00 EMaxC= 1.00D-01 BMatC= 1.13D-13 BMatP= 4.10D-13
 IDIUse=1 WtCom= 1.00D+00 WtEn= 0.00D+00
 Large coefficients: NSaved= 17 BigCof=    0.00 CofMax=   10.00 Det=-6.61D-15
 Inversion failed.  Reducing to 16 matrices.
 Large coefficients: NSaved= 16 BigCof=    0.00 CofMax=   10.00 Det=-6.48D-15
 Inversion failed.  Reducing to 15 matrices.
 Coeff-Com: -0.195D-07-0.991D-06-0.325D-05 0.142D-04-0.197D-04-0.962D-04
 Coeff-Com:  0.131D-03 0.216D-04-0.685D-03 0.270D-02-0.528D-02-0.413D-01
 Coeff-Com:  0.218D+00-0.717D+00 0.154D+01
 Coeff:     -0.195D-07-0.991D-06-0.325D-05 0.142D-04-0.197D-04-0.962D-04
 Coeff:      0.131D-03 0.216D-04-0.685D-03 0.270D-02-0.528D-02-0.413D-01
 Coeff:      0.218D+00-0.717D+00 0.154D+01
 Gap=     0.477 Goal=   None    Shift=    0.000
 Gap=     0.402 Goal=   None    Shift=    0.000
 RMSDP=1.29D-08 MaxDP=2.50D-07 DE= 6.82D-13 OVMax= 4.15D-07

 Cycle  18  Pass 1  IDiag  1:
 Density matrix breaks symmetry, PCut= 1.00D-04
 Density has only Abelian symmetry.
 E= -1382.35954260679     Delta-E=       -0.000000000000 Rises=F Damp=F
 DIIS: error= 2.14D-09 at cycle  18 NSaved=  16.
 NSaved=16 IEnMin=14 EnMin= -1382.35954260679     IErMin=16 ErrMin= 2.14D-09
 ErrMax= 2.14D-09  0.00D+00 EMaxC= 1.00D-01 BMatC= 1.71D-16 BMatP= 1.13D-13
 IDIUse=1 WtCom= 1.00D+00 WtEn= 0.00D+00
 Large coefficients: NSaved= 16 BigCof=    0.00 CofMax=   10.00 Det=-1.78D-16
 Inversion failed.  Reducing to 15 matrices.
 Coeff-Com:  0.244D-06 0.888D-06-0.251D-05 0.304D-05 0.254D-04-0.314D-04
 Coeff-Com:  0.185D-04 0.656D-04-0.513D-03 0.108D-02 0.132D-01-0.638D-01
 Coeff-Com:  0.242D+00-0.653D+00 0.146D+01
 Coeff:      0.244D-06 0.888D-06-0.251D-05 0.304D-05 0.254D-04-0.314D-04
 Coeff:      0.185D-04 0.656D-04-0.513D-03 0.108D-02 0.132D-01-0.638D-01
 Coeff:      0.242D+00-0.653D+00 0.146D+01
 Gap=     0.477 Goal=   None    Shift=    0.000
 Gap=     0.402 Goal=   None    Shift=    0.000
 RMSDP=1.28D-09 MaxDP=2.16D-08 DE=-2.27D-13 OVMax= 1.87D-08

 Density matrix breaks symmetry, PCut= 1.00D-04
 Density has only Abelian symmetry.
 Error on total polarization charges =  0.00678
 SCF Done:  E(UwB97XD) =  -1382.35954261     A.U. after   18 cycles
            NFock= 18  Conv=0.13D-08     -V/T= 2.0019
 <Sx>= 0.0000 <Sy>= 0.0000 <Sz>= 1.5000 <S**2>= 3.7511 S= 1.5003
 <L.S>=  0.00000000000    
 KE= 1.379701701773D+03 PE=-3.274278136294D+03 EE= 5.122161800423D+02
 SMD-CDS (non-electrostatic) energy       (kcal/mol) =       0.45
 (included in total energy above)
 Annihilation of the first spin contaminant:
 S**2 before annihilation     3.7511,   after     3.7500
 Leave Link  502 at Thu Jan 13 20:53:11 2022, MaxMem=  1342177280 cpu:              54.3 elap:               2.0
 (Enter /curc/sw/gaussian/16/g16/l508.exe)
 QCSCF skips out because SCF is already converged.
 Leave Link  508 at Thu Jan 13 20:53:11 2022, MaxMem=  1342177280 cpu:               0.2 elap:               0.0
 (Enter /curc/sw/gaussian/16/g16/l601.exe)
 Copying SCF densities to generalized density rwf, IOpCl= 1 IROHF=0.
 SCF density gives NOpUse=  8 NOpAll= 48.
 Marking SCF density as not fully symmetric.

 **********************************************************************

            Population analysis using the SCF density.

 **********************************************************************

 Orbital symmetries:
 Alpha Orbitals:
       Occupied  (A1G) (A1G) (T1U) (T1U) (T1U) (A1G) (T1U) (T1U)
                 (T1U) (?A) (?B) (?B) (?B) (?A)
       Virtual   (A1G) (A1G) (T1U) (T1U) (T1U) (?A) (?B) (?B) (?A)
                 (?B) (?C) (A2U) (?C) (?C) (?C) (?C) (?C)
 Beta  Orbitals:
       Occupied  (A1G) (A1G) (T1U) (T1U) (T1U) (A1G) (?A) (?A)
                 (?A) (?B) (?C)
       Virtual   (?B) (?C) (?C) (A1G) (A1G) (T1U) (T1U) (T1U) (?B)
                 (?C) (?B) (?C) (?C) (?A) (?A) (?A) (A2U) (?A)
                 (?A) (?A)
 Unable to determine electronic state:  an orbital has unidentified symmetry.
 Alpha  occ. eigenvalues -- -277.84266 -33.11118 -28.73970 -28.73970 -28.73970
 Alpha  occ. eigenvalues --   -4.00223  -2.68134  -2.68134  -2.68134  -0.52047
 Alpha  occ. eigenvalues --   -0.52047  -0.52047  -0.48194  -0.48194
 Alpha virt. eigenvalues --   -0.00485   0.15510   0.21898   0.21898   0.21898
 Alpha virt. eigenvalues --    1.16818   1.16819   1.16819   1.17332   1.17333
 Alpha virt. eigenvalues --    4.75609   4.78075   4.78075   4.78075   4.80099
 Alpha virt. eigenvalues --    4.80099   4.80099
  Beta  occ. eigenvalues -- -277.84195 -33.04355 -28.68413 -28.68413 -28.68413
  Beta  occ. eigenvalues --   -3.85434  -2.52010  -2.52010  -2.52010  -0.41351
  Beta  occ. eigenvalues --   -0.41351
  Beta virt. eigenvalues --   -0.01120  -0.01120  -0.01120   0.00860   0.16646
  Beta virt. eigenvalues --    0.23951   0.23951   0.23951   1.20224   1.20224
  Beta virt. eigenvalues --    1.26894   1.26896   1.26896   4.88663   4.88663
  Beta virt. eigenvalues --    4.88663   4.90692   4.90692   4.90692   4.93958
          Condensed to atoms (all electrons):
               1
     1  Co  25.000000
          Atomic-Atomic Spin Densities.
               1
     1  Co   3.000000
 Mulliken charges and spin densities:
               1          2
     1  Co   2.000000   3.000000
 Sum of Mulliken charges =   2.00000   3.00000
 Mulliken charges and spin densities with hydrogens summed into heavy atoms:
               1          2
     1  Co   2.000000   3.000000
 Electronic spatial extent (au):  <R**2>=             15.6972
 Charge=              2.0000 electrons
 Dipole moment (field-independent basis, Debye):
    X=              0.0000    Y=              0.0000    Z=              0.0000  Tot=              0.0000
 Quadrupole moment (field-independent basis, Debye-Ang):
   XX=             -7.0378   YY=             -7.0378   ZZ=             -7.0378
   XY=              0.0000   XZ=             -0.0000   YZ=              0.0000
 Traceless Quadrupole moment (field-independent basis, Debye-Ang):
   XX=              0.0000   YY=             -0.0000   ZZ=             -0.0000
   XY=              0.0000   XZ=             -0.0000   YZ=              0.0000
 Octapole moment (field-independent basis, Debye-Ang**2):
  XXX=              0.0000  YYY=              0.0000  ZZZ=              0.0000  XYY=              0.0000
  XXY=              0.0000  XXZ=              0.0000  XZZ=              0.0000  YZZ=              0.0000
  YYZ=              0.0000  XYZ=              0.0000
 Hexadecapole moment (field-independent basis, Debye-Ang**3):
 XXXX=             -2.7555 YYYY=             -2.5995 ZZZZ=             -2.5995 XXXY=             -0.0000
 XXXZ=              0.0000 YYYX=              0.0000 YYYZ=              0.0000 ZZZX=             -0.0000
 ZZZY=             -0.0000 XXYY=             -0.8145 XXZZ=             -0.8145 YYZZ=             -0.9705
 XXYZ=              0.0000 YYXZ=             -0.0000 ZZXY=              0.0000
 N-N= 7.118723201149D-04 E-N=-3.274278136307D+03  KE= 1.379701701773D+03
 Symmetry AG   KE= 8.869502564223D+02
 Symmetry B1G  KE= 8.422247548472D+00
 Symmetry B2G  KE= 8.422247545766D+00
 Symmetry B3G  KE= 1.636213206637D+01
 Symmetry AU   KE= 5.108304769264D-36
 Symmetry B1U  KE= 1.531816051567D+02
 Symmetry B2U  KE= 1.531816051568D+02
 Symmetry B3U  KE= 1.531816078765D+02
 Symmetry AG   SP= 1.000000000000D+00
 Symmetry B1G  SP= 1.000000000000D+00
 Symmetry B2G  SP= 1.000000000000D+00
 Symmetry B3G  SP= 1.256598002286D-17
 Symmetry AU   SP=-3.094726908472D-37
 Symmetry B1U  SP= 6.505825643876D-15
 Symmetry B2U  SP= 3.392864366199D-15
 Symmetry B3U  SP=-1.780080990480D-15
                          Isotropic Fermi Contact Couplings
        Atom                 a.u.       MegaHertz       Gauss      10(-4) cm-1
     1  Co(59)             0.09141      32.23580      11.50254      10.75271
 --------------------------------------------------------
       Center         ----  Spin Dipole Couplings  ----
                      3XX-RR        3YY-RR        3ZZ-RR
 --------------------------------------------------------
     1   Atom        0.000003     -0.000001     -0.000001
 --------------------------------------------------------
                        XY            XZ            YZ
 --------------------------------------------------------
     1   Atom        0.000000      0.000000      0.000000
 --------------------------------------------------------


 ---------------------------------------------------------------------------------
              Anisotropic Spin Dipole Couplings in Principal Axis System
 ---------------------------------------------------------------------------------

       Atom             a.u.   MegaHertz   Gauss  10(-4) cm-1        Axes

              Baa    -0.0000    -0.000    -0.000    -0.000 -0.0000  1.0000  0.0000
     1 Co(59) Bbb    -0.0000    -0.000    -0.000    -0.000  0.0000  0.0000  1.0000
              Bcc     0.0000     0.000     0.000     0.000  1.0000  0.0000  0.0000
 

 ---------------------------------------------------------------------------------

 No NMR shielding tensors so no spin-rotation constants.
 Leave Link  601 at Thu Jan 13 20:53:12 2022, MaxMem=  1342177280 cpu:               6.7 elap:               0.3
 (Enter /curc/sw/gaussian/16/g16/l801.exe)
 DoSCS=F DFT=T ScalE2(SS,OS)=  1.000000  1.000000
 Range of M.O.s used for correlation:     1    31
 NBasis=    31 NAE=    14 NBE=    11 NFC=     0 NFV=     0
 NROrb=     31 NOA=    14 NOB=    11 NVA=    17 NVB=    20
 Leave Link  801 at Thu Jan 13 20:53:12 2022, MaxMem=  1342177280 cpu:               1.1 elap:               0.0
 (Enter /curc/sw/gaussian/16/g16/l914.exe)
 UHF ground state
 Doing stability rather than CIS.
 Keep R1 and R2 ints in memory in symmetry-blocked form, NReq=30615510.
 FoFCou: FMM=F IPFlag=           0 FMFlag=           0 FMFlg1=           0
         NFxFlg=           0 DoJE=F BraDBF=F KetDBF=F FulRan=T
         wScrn=  0.000000 ICntrl=       600 IOpCl=  0 I1Cent=           0 NGrid=           0
         NMat0=    1 NMatS0=    496 NMatT0=    0 NMatD0=    1 NMtDS0=    0 NMtDT0=    0
 Petite list used in FoFCou.
 MDV=  1342177280 DFT=T DoStab=T Mixed=T DoRPA=F DoScal=F NonHer=F
 NEqPCM:  Using equilibrium solvation (IEInf=0, Eps=  19.2640, EpsInf=   1.8978)
 Making orbital integer symmetry assigments:
 Orbital symmetries:
 Alpha Orbitals:
       Occupied  (A1G) (A1G) (T1U) (T1U) (T1U) (A1G) (T1U) (T1U)
                 (T1U) (?A) (?B) (?B) (?B) (?A)
       Virtual   (A1G) (A1G) (T1U) (T1U) (T1U) (?A) (?B) (?B) (?A)
                 (?B) (?C) (A2U) (?C) (?C) (?C) (?C) (?C)
 Beta  Orbitals:
       Occupied  (A1G) (A1G) (T1U) (T1U) (T1U) (A1G) (?A) (?A)
                 (?A) (?B) (?C)
       Virtual   (?B) (?C) (?C) (A1G) (A1G) (T1U) (T1U) (T1U) (?B)
                 (?C) (?B) (?C) (?C) (?A) (?A) (?A) (A2U) (?A)
                 (?A) (?A)
    24 initial guesses have been made.
 Convergence on wavefunction:    0.001000000000000
 Davidson Disk Diagonalization:  ConvIn= 1.00D-03 SkipCon=T Conv= 1.00D-03.
 Max sub-space:   916 roots to seek:    24 dimension of matrix:          458
 Iteration     1 Dimension    24 NMult     0 NNew     24
 CISAX will form    24 AO SS matrices at one time.
 NMat=    24 NSing=    24 JSym2X=-1.
 Excitation Energies [eV] at current iteration:
 Root      1 :     0.103264166808059
 Root      2 :     0.103448141039970
 Root      3 :     0.103448156280208
 Root      4 :     1.466232509438438
 Root      5 :     1.467262930814086
 Root      6 :     1.467618660247941
 Root      7 :     4.805478311867209
 Root      8 :     4.805999735800329
 Root      9 :     6.291624369626464
 Root     10 :     6.291686595384483
 Root     11 :     7.322581347496586
 Root     12 :     7.763422495944257
 Root     13 :     7.763556268927197
 Root     14 :    10.183041475257868
 Root     15 :    10.183041484939324
 Root     16 :    10.183055181444523
 Root     17 :    10.249538436624119
 Root     18 :    10.249539186285741
 Root     19 :    10.835314079699938
 Root     20 :    10.835314103930742
 Root     21 :    10.836119082999401
 Root     22 :    12.182340549543143
 Root     23 :    12.182695551802672
 Root     24 :    13.215594286591138
 Iteration     2 Dimension    48 NMult    24 NNew     24
 CISAX will form    24 AO SS matrices at one time.
 NMat=    24 NSing=    24 JSym2X=-1.
 Root      1 not converged, maximum delta is    0.035687154866926
 Excitation Energies [eV] at current iteration:
 Root      1 :     0.000783772324210   Change is   -0.102480394483849
 Root      2 :     0.000989837894627   Change is   -0.102458303145343
 Root      3 :     0.000989853145487   Change is   -0.102458303134721
 Root      4 :     1.291743966906213   Change is   -0.174488542532225
 Root      5 :     1.292799121686506   Change is   -0.174463809127580
 Root      6 :     1.293177215792563   Change is   -0.174441444455377
 Root      7 :     4.781184139673815   Change is   -0.024294172193394
 Root      8 :     4.781705633260438   Change is   -0.024294102539892
 Root      9 :     6.264112280560435   Change is   -0.027512089066029
 Root     10 :     6.264181809262726   Change is   -0.027504786121758
 Root     11 :     7.291843110976895   Change is   -0.030738236519690
 Root     12 :     7.293329832369440   Change is   -0.470092663574817
 Root     13 :     7.293441339482842   Change is   -0.470114929444356
 Root     14 :    10.155747329292170   Change is   -0.027294145965697
 Root     15 :    10.155747339324446   Change is   -0.027294145614878
 Root     16 :    10.155753778259184   Change is   -0.027301403185339
 Root     17 :    10.239380747612429   Change is   -0.010157689011689
 Root     18 :    10.239382179591264   Change is   -0.010157006694479
 Root     19 :    10.826176126893172   Change is   -0.009137952806765
 Root     20 :    10.826176151463093   Change is   -0.009137952467650
 Root     21 :    10.826977983532341   Change is   -0.009141099467060
 Root     22 :    12.173591805843191   Change is   -0.008748743699953
 Root     23 :    12.173947482588462   Change is   -0.008748069214210
 Root     24 :    13.205758334775705   Change is   -0.009835951815433
 Iteration     3 Dimension    51 NMult    48 NNew      3
 CISAX will form     3 AO SS matrices at one time.
 NMat=     3 NSing=     3 JSym2X=-1.
 Root      1 not converged, maximum delta is    0.002528788953060
 Excitation Energies [eV] at current iteration:
 Root      1 :     0.000007850124528   Change is   -0.000775922199682
 Root      2 :     0.000213947604653   Change is   -0.000775890289974
 Root      3 :     0.000213962857036   Change is   -0.000775890288452
 Iteration     4 Dimension    54 NMult    51 NNew      3
 CISAX will form     3 AO SS matrices at one time.
 NMat=     3 NSing=     3 JSym2X=-1.
 Root      1 has converged.
 Excitation Energies [eV] at current iteration:
 Root      1 :     0.000007205100827   Change is   -0.000000645023700
 Root      2 :     0.000213302758187   Change is   -0.000000644846466
 Root      3 :     0.000213318010581   Change is   -0.000000644846454
 Convergence achieved on expansion vectors.
 ***********************************************************************
 Stability analysis using <AA,BB:AA,BB> singles matrix:
 ***********************************************************************
 1PDM for each excited state written to RWF  633
 Ground to excited state transition densities written to RWF  633

 Eigenvectors of the stability matrix:
 
 Excited state symmetry could not be determined.
 Eigenvector   1:  4.001-?Sym  Eigenvalue= 0.0000003  <S**2>=3.751
     11B -> 12B        0.99899
 The wavefunction is stable under the perturbations considered.
 Leave Link  914 at Thu Jan 13 20:53:14 2022, MaxMem=  1342177280 cpu:              34.3 elap:               1.3
 (Enter /curc/sw/gaussian/16/g16/l508.exe)
 The wavefunction is already stable.
 Leave Link  508 at Thu Jan 13 20:53:14 2022, MaxMem=  1342177280 cpu:               0.4 elap:               0.0
 (Enter /curc/sw/gaussian/16/g16/l601.exe)
 Copying SCF densities to generalized density rwf, IOpCl= 1 IROHF=0.
 SCF density gives NOpUse=  8 NOpAll= 48.
 Marking SCF density as not fully symmetric.

 **********************************************************************

            Population analysis using the SCF density.

 **********************************************************************

 Orbital symmetries:
 Alpha Orbitals:
       Occupied  (A1G) (A1G) (T1U) (T1U) (T1U) (A1G) (T1U) (T1U)
                 (T1U) (?A) (?B) (?B) (?B) (?A)
       Virtual   (A1G) (A1G) (T1U) (T1U) (T1U) (?A) (?B) (?B) (?A)
                 (?B) (?C) (A2U) (?C) (?C) (?C) (?C) (?C)
 Beta  Orbitals:
       Occupied  (A1G) (A1G) (T1U) (T1U) (T1U) (A1G) (?A) (?A)
                 (?A) (?B) (?C)
       Virtual   (?B) (?C) (?C) (A1G) (A1G) (T1U) (T1U) (T1U) (?B)
                 (?C) (?B) (?C) (?C) (?A) (?A) (?A) (A2U) (?A)
                 (?A) (?A)
 Unable to determine electronic state:  an orbital has unidentified symmetry.
 Alpha  occ. eigenvalues -- -277.84266 -33.11118 -28.73970 -28.73970 -28.73970
 Alpha  occ. eigenvalues --   -4.00223  -2.68134  -2.68134  -2.68134  -0.52047
 Alpha  occ. eigenvalues --   -0.52047  -0.52047  -0.48194  -0.48194
 Alpha virt. eigenvalues --   -0.00485   0.15510   0.21898   0.21898   0.21898
 Alpha virt. eigenvalues --    1.16818   1.16819   1.16819   1.17332   1.17333
 Alpha virt. eigenvalues --    4.75609   4.78075   4.78075   4.78075   4.80099
 Alpha virt. eigenvalues --    4.80099   4.80099
  Beta  occ. eigenvalues -- -277.84195 -33.04355 -28.68413 -28.68413 -28.68413
  Beta  occ. eigenvalues --   -3.85434  -2.52010  -2.52010  -2.52010  -0.41351
  Beta  occ. eigenvalues --   -0.41351
  Beta virt. eigenvalues --   -0.01120  -0.01120  -0.01120   0.00860   0.16646
  Beta virt. eigenvalues --    0.23951   0.23951   0.23951   1.20224   1.20224
  Beta virt. eigenvalues --    1.26894   1.26896   1.26896   4.88663   4.88663
  Beta virt. eigenvalues --    4.88663   4.90692   4.90692   4.90692   4.93958
          Condensed to atoms (all electrons):
               1
     1  Co  25.000000
          Atomic-Atomic Spin Densities.
               1
     1  Co   3.000000
 Mulliken charges and spin densities:
               1          2
     1  Co   2.000000   3.000000
 Sum of Mulliken charges =   2.00000   3.00000
 Mulliken charges and spin densities with hydrogens summed into heavy atoms:
               1          2
     1  Co   2.000000   3.000000
 Electronic spatial extent (au):  <R**2>=             15.6972
 Charge=              2.0000 electrons
 Dipole moment (field-independent basis, Debye):
    X=              0.0000    Y=              0.0000    Z=              0.0000  Tot=              0.0000
 Quadrupole moment (field-independent basis, Debye-Ang):
   XX=             -7.0378   YY=             -7.0378   ZZ=             -7.0378
   XY=              0.0000   XZ=             -0.0000   YZ=              0.0000
 Traceless Quadrupole moment (field-independent basis, Debye-Ang):
   XX=              0.0000   YY=             -0.0000   ZZ=             -0.0000
   XY=              0.0000   XZ=             -0.0000   YZ=              0.0000
 Octapole moment (field-independent basis, Debye-Ang**2):
  XXX=              0.0000  YYY=              0.0000  ZZZ=              0.0000  XYY=              0.0000
  XXY=              0.0000  XXZ=              0.0000  XZZ=              0.0000  YZZ=              0.0000
  YYZ=              0.0000  XYZ=              0.0000
 Hexadecapole moment (field-independent basis, Debye-Ang**3):
 XXXX=             -2.7555 YYYY=             -2.5995 ZZZZ=             -2.5995 XXXY=             -0.0000
 XXXZ=              0.0000 YYYX=              0.0000 YYYZ=              0.0000 ZZZX=             -0.0000
 ZZZY=             -0.0000 XXYY=             -0.8145 XXZZ=             -0.8145 YYZZ=             -0.9705
 XXYZ=              0.0000 YYXZ=             -0.0000 ZZXY=              0.0000
 N-N= 7.118723201149D-04 E-N=-3.274278136307D+03  KE= 1.379701701773D+03
 Symmetry AG   KE= 8.869502564223D+02
 Symmetry B1G  KE= 8.422247548472D+00
 Symmetry B2G  KE= 8.422247545766D+00
 Symmetry B3G  KE= 1.636213206637D+01
 Symmetry AU   KE= 5.108304769264D-36
 Symmetry B1U  KE= 1.531816051567D+02
 Symmetry B2U  KE= 1.531816051568D+02
 Symmetry B3U  KE= 1.531816078765D+02
 Symmetry AG   SP= 1.000000000000D+00
 Symmetry B1G  SP= 1.000000000000D+00
 Symmetry B2G  SP= 1.000000000000D+00
 Symmetry B3G  SP= 1.256598002286D-17
 Symmetry AU   SP=-3.094726908472D-37
 Symmetry B1U  SP= 6.505825643876D-15
 Symmetry B2U  SP= 3.392864366199D-15
 Symmetry B3U  SP=-1.780080990480D-15
                          Isotropic Fermi Contact Couplings
        Atom                 a.u.       MegaHertz       Gauss      10(-4) cm-1
     1  Co(59)             0.09141      32.23580      11.50254      10.75271
 --------------------------------------------------------
       Center         ----  Spin Dipole Couplings  ----
                      3XX-RR        3YY-RR        3ZZ-RR
 --------------------------------------------------------
     1   Atom        0.000003     -0.000001     -0.000001
 --------------------------------------------------------
                        XY            XZ            YZ
 --------------------------------------------------------
     1   Atom        0.000000      0.000000      0.000000
 --------------------------------------------------------


 ---------------------------------------------------------------------------------
              Anisotropic Spin Dipole Couplings in Principal Axis System
 ---------------------------------------------------------------------------------

       Atom             a.u.   MegaHertz   Gauss  10(-4) cm-1        Axes

              Baa    -0.0000    -0.000    -0.000    -0.000 -0.0000  1.0000  0.0000
     1 Co(59) Bbb    -0.0000    -0.000    -0.000    -0.000  0.0000  0.0000  1.0000
              Bcc     0.0000     0.000     0.000     0.000  1.0000  0.0000  0.0000
 

 ---------------------------------------------------------------------------------

 No NMR shielding tensors so no spin-rotation constants.
 Leave Link  601 at Thu Jan 13 20:53:15 2022, MaxMem=  1342177280 cpu:               6.7 elap:               0.3
 (Enter /curc/sw/gaussian/16/g16/l9999.exe)
 1\1\GINC-BNODE0302\Stability\UwB97XD\def2SVP\Co1(2+,4)\XUWA0145\13-Jan
 -2022\0\\#p wb97xd def2svp scf=xqc stable=opt scrf=(smd, solvent=2-pro
 panol)\\[No Title]\\2,4\Co,0,0.,0.,0.\\Version=ES64L-G16RevA.03\HF=-13
 82.3595426\S2=3.751103\S2-1=0.\S2A=3.75\RMSD=1.275e-09\Dipole=0.,0.,0.
 \Quadrupole=-0.0000055,-0.0000055,0.0000111,0.,0.,0.\PG=OH [O(Co1)]\\@


 Change starts when someone sees the next step.
                            -- William Drayton
 Job cpu time:       0 days  0 hours  2 minutes  8.3 seconds.
 Elapsed time:       0 days  0 hours  0 minutes  5.0 seconds.
 File lengths (MBytes):  RWF=     82 Int=      0 D2E=      0 Chk=      2 Scr=      2
 Normal termination of Gaussian 16 at Thu Jan 13 20:53:15 2022.
