 Entering Gaussian System, Link 0=g16
 Input=co_smd_ls.gjf
 Output=co_smd_ls.log
 Initial command:
 /curc/sw/gaussian/16/g16/l1.exe "/rc_scratch/xuwa0145/Gau-194930.inp" -scrdir="/rc_scratch/xuwa0145/"
 Entering Link 1 = /curc/sw/gaussian/16/g16/l1.exe PID=    194931.
  
 Copyright (c) 1988,1990,1992,1993,1995,1998,2003,2009,2016,
            Gaussian, Inc.  All Rights Reserved.
  
 This is part of the Gaussian(R) 16 program.  It is based on
 the Gaussian(R) 09 system (copyright 2009, Gaussian, Inc.),
 the Gaussian(R) 03 system (copyright 2003, Gaussian, Inc.),
 the Gaussian(R) 98 system (copyright 1998, Gaussian, Inc.),
 the Gaussian(R) 94 system (copyright 1995, Gaussian, Inc.),
 the Gaussian 92(TM) system (copyright 1992, Gaussian, Inc.),
 the Gaussian 90(TM) system (copyright 1990, Gaussian, Inc.),
 the Gaussian 88(TM) system (copyright 1988, Gaussian, Inc.),
 the Gaussian 86(TM) system (copyright 1986, Carnegie Mellon
 University), and the Gaussian 82(TM) system (copyright 1983,
 Carnegie Mellon University). Gaussian is a federally registered
 trademark of Gaussian, Inc.
  
 This software contains proprietary and confidential information,
 including trade secrets, belonging to Gaussian, Inc.
  
 This software is provided under written license and may be
 used, copied, transmitted, or stored only in accord with that
 written license.
  
 The following legend is applicable only to US Government
 contracts under FAR:
  
                    RESTRICTED RIGHTS LEGEND
  
 Use, reproduction and disclosure by the US Government is
 subject to restrictions as set forth in subparagraphs (a)
 and (c) of the Commercial Computer Software - Restricted
 Rights clause in FAR 52.227-19.
  
 Gaussian, Inc.
 340 Quinnipiac St., Bldg. 40, Wallingford CT 06492
  
  
 ---------------------------------------------------------------
 Warning -- This program may not be used in any manner that
 competes with the business of Gaussian, Inc. or will provide
 assistance to any competitor of Gaussian, Inc.  The licensee
 of this program is prohibited from giving any competitor of
 Gaussian, Inc. access to this program.  By using this program,
 the user acknowledges that Gaussian, Inc. is engaged in the
 business of creating and licensing software in the field of
 computational chemistry and represents and warrants to the
 licensee that it is not a competitor of Gaussian, Inc. and that
 it will not use this program in any manner prohibited above.
 ---------------------------------------------------------------
  

 Cite this work as:
 Gaussian 16, Revision A.03,
 M. J. Frisch, G. W. Trucks, H. B. Schlegel, G. E. Scuseria, 
 M. A. Robb, J. R. Cheeseman, G. Scalmani, V. Barone, 
 G. A. Petersson, H. Nakatsuji, X. Li, M. Caricato, A. V. Marenich, 
 J. Bloino, B. G. Janesko, R. Gomperts, B. Mennucci, H. P. Hratchian, 
 J. V. Ortiz, A. F. Izmaylov, J. L. Sonnenberg, D. Williams-Young, 
 F. Ding, F. Lipparini, F. Egidi, J. Goings, B. Peng, A. Petrone, 
 T. Henderson, D. Ranasinghe, V. G. Zakrzewski, J. Gao, N. Rega, 
 G. Zheng, W. Liang, M. Hada, M. Ehara, K. Toyota, R. Fukuda, 
 J. Hasegawa, M. Ishida, T. Nakajima, Y. Honda, O. Kitao, H. Nakai, 
 T. Vreven, K. Throssell, J. A. Montgomery, Jr., J. E. Peralta, 
 F. Ogliaro, M. J. Bearpark, J. J. Heyd, E. N. Brothers, K. N. Kudin, 
 V. N. Staroverov, T. A. Keith, R. Kobayashi, J. Normand, 
 K. Raghavachari, A. P. Rendell, J. C. Burant, S. S. Iyengar, 
 J. Tomasi, M. Cossi, J. M. Millam, M. Klene, C. Adamo, R. Cammi, 
 J. W. Ochterski, R. L. Martin, K. Morokuma, O. Farkas, 
 J. B. Foresman, and D. J. Fox, Gaussian, Inc., Wallingford CT, 2016.
 
 ******************************************
 Gaussian 16:  ES64L-G16RevA.03 25-Dec-2016
                14-Jan-2022 
 ******************************************
 %chk=ketone.chk
 %mem=10gb
 %nprocshared=28
 Will use up to   28 processors via shared memory.
 -------------------------------------------------------------------
 #p wb97xd def2svp scf=xqc stable=opt scrf=(smd, solvent=2-propanol)
 -------------------------------------------------------------------
 1/38=1,172=1/1;
 2/12=2,17=6,18=5,40=1/2;
 3/5=43,7=101,11=2,25=1,30=1,70=32201,72=73,74=-58/1,2,3;
 4//1;
 5/5=2,8=3,13=1,38=5,53=73/2,8;
 6/7=2,8=2,9=2,10=2,28=1/1;
 8/6=1,10=90,11=11/1;
 9/8=-3,42=1,46=1/14;
 5/5=2,8=3,17=40,38=5,53=73/8(-2);
 6/7=2,8=2,9=2,10=2,28=1/1;
 99/5=1,9=1/99;
 Leave Link    1 at Fri Jan 14 15:04:54 2022, MaxMem=  1342177280 cpu:               2.8 elap:               0.1
 (Enter /curc/sw/gaussian/16/g16/l101.exe)
 ----------
 [No Title]
 ----------
 Symbolic Z-matrix:
 Charge =  2 Multiplicity = 2
 Co                    0.        0.        0. 
 
 ITRead=  0
 MicOpt= -1
 NAtoms=      1 NQM=        1 NQMF=       0 NMMI=      0 NMMIF=      0
                NMic=       0 NMicF=      0.
                    Isotopes and Nuclear Properties:
 (Nuclear quadrupole moments (NQMom) in fm**2, nuclear magnetic moments (NMagM)
  in nuclear magnetons)

  Atom         1
 IAtWgt=          59
 AtmWgt=  58.9331978
 NucSpn=           7
 AtZEff=  -0.0000000
 NQMom=   42.0000000
 NMagM=    4.6270000
 AtZNuc=  27.0000000
 Leave Link  101 at Fri Jan 14 15:04:54 2022, MaxMem=  1342177280 cpu:               6.4 elap:               0.3
 (Enter /curc/sw/gaussian/16/g16/l202.exe)
                          Input orientation:                          
 ---------------------------------------------------------------------
 Center     Atomic      Atomic             Coordinates (Angstroms)
 Number     Number       Type             X           Y           Z
 ---------------------------------------------------------------------
      1         27           0        0.000000    0.000000    0.000000
 ---------------------------------------------------------------------
 Stoichiometry    Co(2+,2)
 Framework group  OH[O(Co)]
 Deg. of freedom     0
 Full point group                 OH      NOp  48
 Largest Abelian subgroup         D2H     NOp   8
 Largest concise Abelian subgroup C1      NOp   1
                         Standard orientation:                         
 ---------------------------------------------------------------------
 Center     Atomic      Atomic             Coordinates (Angstroms)
 Number     Number       Type             X           Y           Z
 ---------------------------------------------------------------------
      1         27           0        0.000000    0.000000    0.000000
 ---------------------------------------------------------------------
 Leave Link  202 at Fri Jan 14 15:04:55 2022, MaxMem=  1342177280 cpu:               0.9 elap:               0.1
 (Enter /curc/sw/gaussian/16/g16/l301.exe)
 Standard basis: def2SVP (5D, 7F)
 Ernie: Thresh=  0.10000D-02 Tol=  0.10000D-05 Strict=F.
 There are    11 symmetry adapted cartesian basis functions of AG  symmetry.
 There are     2 symmetry adapted cartesian basis functions of B1G symmetry.
 There are     2 symmetry adapted cartesian basis functions of B2G symmetry.
 There are     2 symmetry adapted cartesian basis functions of B3G symmetry.
 There are     1 symmetry adapted cartesian basis functions of AU  symmetry.
 There are     6 symmetry adapted cartesian basis functions of B1U symmetry.
 There are     6 symmetry adapted cartesian basis functions of B2U symmetry.
 There are     6 symmetry adapted cartesian basis functions of B3U symmetry.
 There are     9 symmetry adapted basis functions of AG  symmetry.
 There are     2 symmetry adapted basis functions of B1G symmetry.
 There are     2 symmetry adapted basis functions of B2G symmetry.
 There are     2 symmetry adapted basis functions of B3G symmetry.
 There are     1 symmetry adapted basis functions of AU  symmetry.
 There are     5 symmetry adapted basis functions of B1U symmetry.
 There are     5 symmetry adapted basis functions of B2U symmetry.
 There are     5 symmetry adapted basis functions of B3U symmetry.
    31 basis functions,    81 primitive gaussians,    36 cartesian basis functions
    13 alpha electrons       12 beta electrons
       nuclear repulsion energy         0.0000000000 Hartrees.
 IExCor= 4639 DFT=T Ex+Corr=wB97XD ExCW=0 ScaHFX=  1.000000
 ScaDFX=  1.000000  1.000000  1.000000  1.000000 ScalE2=  1.000000  1.000000
 IRadAn=      5 IRanWt=     -1 IRanGd=            0 ICorTp=0 IEmpDi=121
 HFx  wShort=  0.000000 wLong=  0.200000 cFull=  0.222036 cShort=  0.000000 cLong=  0.777964
 DFx  wShort=  0.000000 wLong=  0.200000 cFull=  0.000000 cShort=  0.000000 cLong=  1.000000
 NAtoms=    1 NActive=    1 NUniq=    1 SFac= 1.00D+00 NAtFMM=   60 NAOKFM=F Big=F
 Integral buffers will be    131072 words long.
 Raffenetti 2 integral format.
 Two-electron integral symmetry is turned on.
 R6Disp:  Grimme-D2 Dispersion energy=        0.0000000000 Hartrees.
 Nuclear repulsion after empirical dispersion term =        0.0000000000 Hartrees.
 ------------------------------------------------------------------------------
 Polarizable Continuum Model (PCM)
 =================================
 Model                : PCM.
 Atomic radii         : SMD-Coulomb.
 Polarization charges : Total charges.
 Charge compensation  : None.
 Solution method      : On-the-fly selection.
 Cavity type          : VdW (van der Waals Surface) (Alpha=1.000).
 Cavity algorithm     : GePol (No added spheres)
                        Default sphere list used, NSphG=    1.
                        Lebedev-Laikov grids with approx.  5.0 points / Ang**2.
                        Smoothing algorithm: York/Karplus (Gamma=1.0000).
                        Polarization charges: spherical gaussians, with
                                              point-specific exponents (IZeta= 3).
                        Self-potential: point-specific (ISelfS= 7).
                        Self-field    : sphere-specific E.n sum rule (ISelfD= 2).
 Solvent              : 2-Propanol, Eps=  19.264000 Eps(inf)=   1.897782
 ------------------------------------------------------------------------------
 Spheres list:
 ISph  on   Nord     Re0    Alpha      Xe            Ye            Ze
    1  Co      1    1.4360  1.000      0.000000      0.000000      0.000000
 ------------------------------------------------------------------------------
 GePol: Number of generator spheres                  =       1
 GePol: Total number of spheres                      =       1
 GePol: Number of exposed spheres                    =       1 (100.00%)
 GePol: Number of points                             =     146
 GePol: Average weight of points                     =       0.18
 GePol: Minimum weight of points                     =   0.16D-01
 GePol: Maximum weight of points                     =    0.19628
 GePol: Number of points with low weight             =       0
 GePol: Fraction of low-weight points (<1% of avg)   =       0.00%
 GePol: Cavity surface area                          =     25.913 Ang**2
 GePol: Cavity volume                                =     12.404 Ang**3
 ------------------------------------------------------------------------------
 Atomic radii for non-electrostatic terms: SMD-CDS.
 ------------------------------------------------------------------------------
 PCM non-electrostatic energy =         0.0007118723 Hartrees.
 Nuclear repulsion after PCM non-electrostatic terms =        0.0007118723 Hartrees.
 Leave Link  301 at Fri Jan 14 15:04:56 2022, MaxMem=  1342177280 cpu:               3.0 elap:               0.1
 (Enter /curc/sw/gaussian/16/g16/l302.exe)
 NPDir=0 NMtPBC=     1 NCelOv=     1 NCel=       1 NClECP=     1 NCelD=      1
         NCelK=      1 NCelE2=     1 NClLst=     1 CellRange=     0.0.
 One-electron integrals computed using PRISM.
 One-electron integral symmetry used in STVInt
  48 Symmetry operations used in ECPInt.
 ECPInt:  NShTT=      66 NPrTT=     475 LenC2=      67 LenP2D=     475.
 LDataN:  DoStor=T MaxTD1= 6 Len=  172
 NBasis=    31 RedAO= T EigKep=  1.40D-01  NBF=     9     2     2     2     1     5     5     5
 NBsUse=    31 1.00D-06 EigRej= -1.00D+00 NBFU=     9     2     2     2     1     5     5     5
 Precomputing XC quadrature grid using
 IXCGrd= 4 IRadAn=           5 IRanWt=          -1 IRanGd=           0 AccXCQ= 0.00D+00.
 Generated NRdTot=       0 NPtTot=           0 NUsed=           0 NTot=          32
 NSgBfM=    36    36    36    36    36 MxSgAt=     1 MxSgA2=     1.
 Leave Link  302 at Fri Jan 14 15:04:57 2022, MaxMem=  1342177280 cpu:               4.9 elap:               0.2
 (Enter /curc/sw/gaussian/16/g16/l303.exe)
 DipDrv:  MaxL=1.
 Leave Link  303 at Fri Jan 14 15:04:57 2022, MaxMem=  1342177280 cpu:               1.1 elap:               0.1
 (Enter /curc/sw/gaussian/16/g16/l401.exe)
 ExpMin= 3.59D-02 ExpMax= 6.59D+04 ExpMxC= 9.90D+03 IAcc=3 IRadAn=         5 AccDes= 0.00D+00
 Harris functional with IExCor= 4639 and IRadAn=       5 diagonalized for initial guess.
 HarFok:  IExCor= 4639 AccDes= 0.00D+00 IRadAn=         5 IDoV= 1 UseB2=F ITyADJ=14
 ICtDFT=  3500011 ScaDFX=  1.000000  1.000000  1.000000  1.000000
 FoFCou: FMM=F IPFlag=           0 FMFlag=      100000 FMFlg1=           0
         NFxFlg=           0 DoJE=T BraDBF=F KetDBF=T FulRan=T
         wScrn=  0.000000 ICntrl=       500 IOpCl=  0 I1Cent=   200000004 NGrid=           0
         NMat0=    1 NMatS0=      1 NMatT0=    0 NMatD0=    1 NMtDS0=    0 NMtDT0=    0
 Petite list used in FoFCou.
 Harris En= -1367.50586591953    
 JPrj=0 DoOrth=F DoCkMO=F.
 Initial guess orbital symmetries:
 Alpha Orbitals:
       Occupied  (A1G) (A1G) (T1U) (T1U) (T1U) (A1G) (T1U) (T1U)
                 (T1U) (A1G) (T2G) (T2G) (T2G)
       Virtual   (EG) (EG) (A1G) (T1U) (T1U) (T1U) (T2G) (T2G)
                 (T2G) (EG) (EG) (T2U) (T2U) (T2U) (A2U) (T1U)
                 (T1U) (T1U)
 Beta  Orbitals:
       Occupied  (A1G) (A1G) (T1U) (T1U) (T1U) (A1G) (T1U) (T1U)
                 (T1U) (A1G) (T2G) (T2G)
       Virtual   (T2G) (EG) (EG) (A1G) (T1U) (T1U) (T1U) (T2G)
                 (T2G) (T2G) (EG) (EG) (T2U) (T2U) (T2U) (A2U)
                 (T1U) (T1U) (T1U)
 Initial guess <Sx>= 0.0000 <Sy>= 0.0000 <Sz>= 0.5000 <S**2>= 0.7500 S= 0.5000
 Leave Link  401 at Fri Jan 14 15:04:58 2022, MaxMem=  1342177280 cpu:               6.4 elap:               0.3
 (Enter /curc/sw/gaussian/16/g16/l502.exe)
 Keep R1 and R2 ints in memory in symmetry-blocked form, NReq=24406398.
 FoFCou: FMM=F IPFlag=           0 FMFlag=           0 FMFlg1=           0
         NFxFlg=           0 DoJE=F BraDBF=F KetDBF=F FulRan=T
         wScrn=  0.000000 ICntrl=       600 IOpCl=  0 I1Cent=           0 NGrid=           0
         NMat0=    1 NMatS0=    496 NMatT0=    0 NMatD0=    1 NMtDS0=    0 NMtDT0=    0
 Petite list used in FoFCou.
 UHF open shell SCF:
 Using DIIS extrapolation, IDIIS=  1040.
 NGot=  1342177280 LenX=  1342134430 LenY=  1342132693
 Requested convergence on RMS density matrix=1.00D-08 within  32 cycles.
 Requested convergence on MAX density matrix=1.00D-06.
 Requested convergence on             energy=1.00D-06.
 No special actions if energy rises.

 Cycle   1  Pass 1  IDiag  1:
 Density matrix breaks symmetry, PCut= 1.00D-04
 Density has only Abelian symmetry.
 Inv3:  Mode=1 IEnd=       63948.
 Iteration    1 A*A^-1 deviation from unit magnitude is 2.22D-15 for     30.
 Iteration    1 A*A^-1 deviation from orthogonality  is 8.40D-16 for     38     22.
 Iteration    1 A^-1*A deviation from unit magnitude is 2.44D-15 for      8.
 Iteration    1 A^-1*A deviation from orthogonality  is 8.63D-16 for    121     57.
 E= -1380.12311299280    
 DIIS: error= 4.17D-01 at cycle   1 NSaved=   1.
 NSaved= 1 IEnMin= 1 EnMin= -1380.12311299280     IErMin= 1 ErrMin= 4.17D-01
 ErrMax= 4.17D-01  0.00D+00 EMaxC= 1.00D-01 BMatC= 8.21D+00 BMatP= 8.21D+00
 IDIUse=3 WtCom= 0.00D+00 WtEn= 1.00D+00
 Coeff-Com:  0.100D+01
 Coeff-En:   0.100D+01
 Coeff:      0.100D+01
 Gap=    -0.917 Goal=   None    Shift=    0.000
 Gap=     0.889 Goal=   None    Shift=    0.000
 GapD=   -0.917 DampG=0.250 DampE=0.125 DampFc=0.1250 IDamp=-1.
 Damping current iteration by 1.25D-01
 RMSDP=4.88D-02 MaxDP=7.17D-01              OVMax= 8.37D-01

 Cycle   2  Pass 1  IDiag  1:
 Density matrix breaks symmetry, PCut= 1.00D-04
 Density has only Abelian symmetry.
 E= -1380.59225088785     Delta-E=       -0.469137895049 Rises=F Damp=T
 DIIS: error= 3.15D-01 at cycle   2 NSaved=   2.
 NSaved= 2 IEnMin= 2 EnMin= -1380.59225088785     IErMin= 2 ErrMin= 3.15D-01
 ErrMax= 3.15D-01  0.00D+00 EMaxC= 1.00D-01 BMatC= 4.65D+00 BMatP= 8.21D+00
 IDIUse=3 WtCom= 0.00D+00 WtEn= 1.00D+00
 Coeff-Com: -0.302D+01 0.402D+01
 Coeff-En:   0.000D+00 0.100D+01
 Coeff:      0.000D+00 0.100D+01
 Gap=     0.080 Goal=   None    Shift=    0.000
 Gap=     0.089 Goal=   None    Shift=    0.000
 RMSDP=4.10D-02 MaxDP=6.08D-01 DE=-4.69D-01 OVMax= 5.91D-03

 Cycle   3  Pass 1  IDiag  1:
 Density matrix breaks symmetry, PCut= 1.00D-04
 Density has only Abelian symmetry.
 E= -1381.60616528719     Delta-E=       -1.013914399331 Rises=F Damp=F
 DIIS: error= 2.06D-01 at cycle   3 NSaved=   3.
 NSaved= 3 IEnMin= 3 EnMin= -1381.60616528719     IErMin= 3 ErrMin= 2.06D-01
 ErrMax= 2.06D-01  0.00D+00 EMaxC= 1.00D-01 BMatC= 2.98D+00 BMatP= 4.65D+00
 IDIUse=3 WtCom= 0.00D+00 WtEn= 1.00D+00
 EnCoef did   100 forward-backward iterations
 Coeff-Com: -0.334D+01 0.441D+01-0.629D-01
 Coeff-En:   0.206D+00 0.819D-02 0.786D+00
 Coeff:      0.206D+00 0.819D-02 0.786D+00
 Gap=     0.260 Goal=   None    Shift=    0.000
 Gap=     0.274 Goal=   None    Shift=    0.000
 RMSDP=2.16D-02 MaxDP=2.17D-01 DE=-1.01D+00 OVMax= 4.64D-02

 Cycle   4  Pass 1  IDiag  1:
 Density matrix breaks symmetry, PCut= 1.00D-04
 Density has only Abelian symmetry.
 E= -1382.25829904129     Delta-E=       -0.652133754105 Rises=F Damp=F
 DIIS: error= 2.67D-02 at cycle   4 NSaved=   4.
 NSaved= 4 IEnMin= 4 EnMin= -1382.25829904129     IErMin= 4 ErrMin= 2.67D-02
 ErrMax= 2.67D-02  0.00D+00 EMaxC= 1.00D-01 BMatC= 5.15D-02 BMatP= 2.98D+00
 IDIUse=3 WtCom= 7.33D-01 WtEn= 2.67D-01
 Coeff-Com:  0.170D+00-0.242D+00 0.107D+00 0.965D+00
 Coeff-En:   0.000D+00 0.000D+00 0.000D+00 0.100D+01
 Coeff:      0.125D+00-0.177D+00 0.783D-01 0.974D+00
 Gap=     0.446 Goal=   None    Shift=    0.000
 Gap=     0.417 Goal=   None    Shift=    0.000
 RMSDP=1.79D-03 MaxDP=1.97D-02 DE=-6.52D-01 OVMax= 6.54D-03

 Cycle   5  Pass 1  IDiag  1:
 Density matrix breaks symmetry, PCut= 1.00D-04
 Density has only Abelian symmetry.
 E= -1382.26601025049     Delta-E=       -0.007711209196 Rises=F Damp=F
 DIIS: error= 3.54D-03 at cycle   5 NSaved=   5.
 NSaved= 5 IEnMin= 5 EnMin= -1382.26601025049     IErMin= 5 ErrMin= 3.54D-03
 ErrMax= 3.54D-03  0.00D+00 EMaxC= 1.00D-01 BMatC= 7.14D-04 BMatP= 5.15D-02
 IDIUse=3 WtCom= 9.65D-01 WtEn= 3.54D-02
 Coeff-Com: -0.227D-01 0.269D-01 0.198D-01 0.810D-01 0.895D+00
 Coeff-En:   0.000D+00 0.000D+00 0.000D+00 0.000D+00 0.100D+01
 Coeff:     -0.219D-01 0.259D-01 0.191D-01 0.781D-01 0.899D+00
 Gap=     0.320 Goal=   None    Shift=    0.000
 Gap=     0.332 Goal=   None    Shift=    0.000
 RMSDP=2.37D-04 MaxDP=3.20D-03 DE=-7.71D-03 OVMax= 6.22D-04

 Cycle   6  Pass 1  IDiag  1:
 Density matrix breaks symmetry, PCut= 1.00D-04
 Density has only Abelian symmetry.
 E= -1382.26611911620     Delta-E=       -0.000108865717 Rises=F Damp=F
 DIIS: error= 3.11D-04 at cycle   6 NSaved=   6.
 NSaved= 6 IEnMin= 6 EnMin= -1382.26611911620     IErMin= 6 ErrMin= 3.11D-04
 ErrMax= 3.11D-04  0.00D+00 EMaxC= 1.00D-01 BMatC= 2.80D-06 BMatP= 7.14D-04
 IDIUse=3 WtCom= 9.97D-01 WtEn= 3.11D-03
 Coeff-Com:  0.234D-03-0.845D-03-0.397D-02-0.991D-02-0.955D-01 0.111D+01
 Coeff-En:   0.000D+00 0.000D+00 0.000D+00 0.000D+00 0.000D+00 0.100D+01
 Coeff:      0.233D-03-0.843D-03-0.396D-02-0.988D-02-0.952D-01 0.111D+01
 Gap=     0.320 Goal=   None    Shift=    0.000
 Gap=     0.333 Goal=   None    Shift=    0.000
 RMSDP=2.80D-05 MaxDP=4.46D-04 DE=-1.09D-04 OVMax= 2.65D-05

 Cycle   7  Pass 1  IDiag  1:
 Density matrix breaks symmetry, PCut= 1.00D-04
 Density has only Abelian symmetry.
 E= -1382.26611978623     Delta-E=       -0.000000670024 Rises=F Damp=F
 DIIS: error= 1.35D-04 at cycle   7 NSaved=   7.
 NSaved= 7 IEnMin= 7 EnMin= -1382.26611978623     IErMin= 7 ErrMin= 1.35D-04
 ErrMax= 1.35D-04  0.00D+00 EMaxC= 1.00D-01 BMatC= 6.86D-07 BMatP= 2.80D-06
 IDIUse=3 WtCom= 9.99D-01 WtEn= 1.35D-03
 Coeff-Com:  0.368D-04-0.123D-03 0.130D-02 0.351D-02 0.171D-01-0.197D+00
 Coeff-Com:  0.117D+01
 Coeff-En:   0.000D+00 0.000D+00 0.000D+00 0.000D+00 0.000D+00 0.000D+00
 Coeff-En:   0.100D+01
 Coeff:      0.367D-04-0.123D-03 0.130D-02 0.351D-02 0.171D-01-0.196D+00
 Coeff:      0.117D+01
 Gap=     0.320 Goal=   None    Shift=    0.000
 Gap=     0.333 Goal=   None    Shift=    0.000
 RMSDP=6.37D-06 MaxDP=1.18D-04 DE=-6.70D-07 OVMax= 1.12D-05

 Cycle   8  Pass 1  IDiag  1:
 Density matrix breaks symmetry, PCut= 1.00D-04
 Density has only Abelian symmetry.
 E= -1382.26611990193     Delta-E=       -0.000000115704 Rises=F Damp=F
 DIIS: error= 2.81D-05 at cycle   8 NSaved=   8.
 NSaved= 8 IEnMin= 8 EnMin= -1382.26611990193     IErMin= 8 ErrMin= 2.81D-05
 ErrMax= 2.81D-05  0.00D+00 EMaxC= 1.00D-01 BMatC= 3.25D-08 BMatP= 6.86D-07
 IDIUse=1 WtCom= 1.00D+00 WtEn= 0.00D+00
 Coeff-Com:  0.157D-03-0.207D-03 0.276D-04-0.203D-03-0.125D-02-0.644D-02
 Coeff-Com: -0.112D+00 0.112D+01
 Coeff:      0.157D-03-0.207D-03 0.276D-04-0.203D-03-0.125D-02-0.644D-02
 Coeff:     -0.112D+00 0.112D+01
 Gap=     0.320 Goal=   None    Shift=    0.000
 Gap=     0.333 Goal=   None    Shift=    0.000
 RMSDP=1.30D-06 MaxDP=2.46D-05 DE=-1.16D-07 OVMax= 2.70D-06

 Cycle   9  Pass 1  IDiag  1:
 Density matrix breaks symmetry, PCut= 1.00D-04
 Density has only Abelian symmetry.
 E= -1382.26611990707     Delta-E=       -0.000000005137 Rises=F Damp=F
 DIIS: error= 6.11D-06 at cycle   9 NSaved=   9.
 NSaved= 9 IEnMin= 9 EnMin= -1382.26611990707     IErMin= 9 ErrMin= 6.11D-06
 ErrMax= 6.11D-06  0.00D+00 EMaxC= 1.00D-01 BMatC= 2.31D-09 BMatP= 3.25D-08
 IDIUse=1 WtCom= 1.00D+00 WtEn= 0.00D+00
 Coeff-Com: -0.512D-05 0.769D-05-0.251D-05-0.452D-04-0.178D-03 0.676D-02
 Coeff-Com: -0.179D-01-0.135D+00 0.115D+01
 Coeff:     -0.512D-05 0.769D-05-0.251D-05-0.452D-04-0.178D-03 0.676D-02
 Coeff:     -0.179D-01-0.135D+00 0.115D+01
 Gap=     0.320 Goal=   None    Shift=    0.000
 Gap=     0.333 Goal=   None    Shift=    0.000
 RMSDP=4.66D-07 MaxDP=5.62D-06 DE=-5.14D-09 OVMax= 9.40D-07

 Cycle  10  Pass 1  IDiag  1:
 Density matrix breaks symmetry, PCut= 1.00D-04
 Density has only Abelian symmetry.
 E= -1382.26611990745     Delta-E=       -0.000000000387 Rises=F Damp=F
 DIIS: error= 4.22D-07 at cycle  10 NSaved=  10.
 NSaved=10 IEnMin=10 EnMin= -1382.26611990745     IErMin=10 ErrMin= 4.22D-07
 ErrMax= 4.22D-07  0.00D+00 EMaxC= 1.00D-01 BMatC= 1.03D-11 BMatP= 2.31D-09
 IDIUse=1 WtCom= 1.00D+00 WtEn= 0.00D+00
 Coeff-Com: -0.156D-06 0.311D-06-0.946D-06 0.633D-05 0.383D-04-0.891D-03
 Coeff-Com:  0.374D-02 0.914D-02-0.131D+00 0.112D+01
 Coeff:     -0.156D-06 0.311D-06-0.946D-06 0.633D-05 0.383D-04-0.891D-03
 Coeff:      0.374D-02 0.914D-02-0.131D+00 0.112D+01
 Gap=     0.320 Goal=   None    Shift=    0.000
 Gap=     0.333 Goal=   None    Shift=    0.000
 RMSDP=2.68D-08 MaxDP=3.49D-07 DE=-3.87D-10 OVMax= 5.28D-08

 Cycle  11  Pass 1  IDiag  1:
 Density matrix breaks symmetry, PCut= 1.00D-04
 Density has only Abelian symmetry.
 E= -1382.26611990746     Delta-E=       -0.000000000001 Rises=F Damp=F
 DIIS: error= 3.63D-08 at cycle  11 NSaved=  11.
 NSaved=11 IEnMin=11 EnMin= -1382.26611990746     IErMin=11 ErrMin= 3.63D-08
 ErrMax= 3.63D-08  0.00D+00 EMaxC= 1.00D-01 BMatC= 6.93D-14 BMatP= 1.03D-11
 IDIUse=1 WtCom= 1.00D+00 WtEn= 0.00D+00
 Large coefficients: NSaved= 11 BigCof=    0.00 CofMax=   10.00 Det=-5.83D-15
 Inversion failed.  Reducing to 10 matrices.
 Coeff-Com:  0.284D-08 0.111D-07-0.860D-06-0.492D-05 0.121D-03-0.458D-03
 Coeff-Com: -0.118D-02 0.161D-01-0.182D+00 0.117D+01
 Coeff:      0.284D-08 0.111D-07-0.860D-06-0.492D-05 0.121D-03-0.458D-03
 Coeff:     -0.118D-02 0.161D-01-0.182D+00 0.117D+01
 Gap=     0.320 Goal=   None    Shift=    0.000
 Gap=     0.333 Goal=   None    Shift=    0.000
 RMSDP=2.41D-09 MaxDP=3.40D-08 DE=-1.36D-12 OVMax= 5.73D-09

 Density matrix breaks symmetry, PCut= 1.00D-04
 Density has only Abelian symmetry.
 Error on total polarization charges =  0.00695
 SCF Done:  E(UwB97XD) =  -1382.26611991     A.U. after   11 cycles
            NFock= 11  Conv=0.24D-08     -V/T= 2.0020
 <Sx>= 0.0000 <Sy>= 0.0000 <Sz>= 0.5000 <S**2>= 0.7504 S= 0.5002
 <L.S>=  0.00000000000    
 KE= 1.379449188767D+03 PE=-3.273619992966D+03 EE= 5.119039724195D+02
 SMD-CDS (non-electrostatic) energy       (kcal/mol) =       0.45
 (included in total energy above)
 Annihilation of the first spin contaminant:
 S**2 before annihilation     0.7504,   after     0.7500
 Leave Link  502 at Fri Jan 14 15:05:01 2022, MaxMem=  1342177280 cpu:              43.2 elap:               1.7
 (Enter /curc/sw/gaussian/16/g16/l508.exe)
 QCSCF skips out because SCF is already converged.
 Leave Link  508 at Fri Jan 14 15:05:01 2022, MaxMem=  1342177280 cpu:               0.4 elap:               0.0
 (Enter /curc/sw/gaussian/16/g16/l601.exe)
 Copying SCF densities to generalized density rwf, IOpCl= 1 IROHF=0.
 SCF density gives NOpUse=  8 NOpAll= 48.
 Marking SCF density as not fully symmetric.

 **********************************************************************

            Population analysis using the SCF density.

 **********************************************************************

 Orbital symmetries:
 Alpha Orbitals:
       Occupied  (A1G) (A1G) (T1U) (T1U) (T1U) (A1G) (T1U) (T1U)
                 (T1U) (T2G) (T2G) (T2G) (?A)
       Virtual   (?A) (?A) (?A) (T1U) (T1U) (T1U) (T2G) (T2G) (T2G)
                 (EG) (EG) (A2U) (?B) (?B) (?B) (?B) (?B) (?B)
 Beta  Orbitals:
       Occupied  (A1G) (A1G) (T1U) (T1U) (T1U) (?A) (?B) (?B) (?B)
                 (?C) (?C) (?A)
       Virtual   (?A) (?C) (?A) (?A) (T1U) (T1U) (T1U) (?C) (?C)
                 (EG) (EG) (?C) (?B) (?B) (?B) (?B) (A2U) (?B)
                 (?B)
 Unable to determine electronic state:  an orbital has unidentified symmetry.
 Alpha  occ. eigenvalues -- -277.86690 -33.11201 -28.75644 -28.73915 -28.73915
 Alpha  occ. eigenvalues --   -3.96796  -2.64934  -2.63772  -2.63772  -0.48428
 Alpha  occ. eigenvalues --   -0.48344  -0.48344  -0.44615
 Alpha virt. eigenvalues --   -0.12590  -0.00560   0.15098   0.22164   0.22164
 Alpha virt. eigenvalues --    0.22628   1.17238   1.17238   1.18393   1.18730
 Alpha virt. eigenvalues --    1.22618   4.80465   4.80483   4.80483   4.81332
 Alpha virt. eigenvalues --    4.82814   4.82814   4.82995
  Beta  occ. eigenvalues -- -277.86666 -33.08912 -28.75115 -28.71363 -28.71363
  Beta  occ. eigenvalues --   -3.91952  -2.63630  -2.56394  -2.56394  -0.45804
  Beta  occ. eigenvalues --   -0.45804  -0.42880
  Beta virt. eigenvalues --   -0.09601  -0.02505   0.00051   0.15838   0.22679
  Beta virt. eigenvalues --    0.23091   0.23091   1.18298   1.18298   1.19381
  Beta virt. eigenvalues --    1.24107   1.26167   4.83193   4.83193   4.83402
  Beta virt. eigenvalues --    4.83726   4.86307   4.89548   4.89548
          Condensed to atoms (all electrons):
               1
     1  Co  25.000000
          Atomic-Atomic Spin Densities.
               1
     1  Co   1.000000
 Mulliken charges and spin densities:
               1          2
     1  Co   2.000000   1.000000
 Sum of Mulliken charges =   2.00000   1.00000
 Mulliken charges and spin densities with hydrogens summed into heavy atoms:
               1          2
     1  Co   2.000000   1.000000
 Electronic spatial extent (au):  <R**2>=             15.7712
 Charge=              2.0000 electrons
 Dipole moment (field-independent basis, Debye):
    X=              0.0000    Y=              0.0000    Z=              0.0000  Tot=              0.0000
 Quadrupole moment (field-independent basis, Debye-Ang):
   XX=             -7.2292   YY=             -6.7545   ZZ=             -7.2292
   XY=             -0.0000   XZ=             -0.0000   YZ=              0.0000
 Traceless Quadrupole moment (field-independent basis, Debye-Ang):
   XX=             -0.1582   YY=              0.3164   ZZ=             -0.1582
   XY=             -0.0000   XZ=             -0.0000   YZ=              0.0000
 Octapole moment (field-independent basis, Debye-Ang**2):
  XXX=              0.0000  YYY=              0.0000  ZZZ=              0.0000  XYY=              0.0000
  XXY=              0.0000  XXZ=              0.0000  XZZ=              0.0000  YZZ=              0.0000
  YYZ=              0.0000  XYZ=              0.0000
 Hexadecapole moment (field-independent basis, Debye-Ang**3):
 XXXX=             -2.7844 YYYY=             -2.2183 ZZZZ=             -2.7844 XXXY=              0.0000
 XXXZ=              0.0000 YYYX=             -0.0000 YYYZ=              0.0000 ZZZX=             -0.0000
 ZZZY=             -0.0000 XXYY=             -0.9695 XXZZ=             -0.8257 YYZZ=             -0.9695
 XXYZ=             -0.0000 YYXZ=             -0.0000 ZZXY=              0.0000
 N-N= 7.118723201149D-04 E-N=-3.273619990241D+03  KE= 1.379449188767D+03
 Symmetry AG   KE= 8.785036411418D+02
 Symmetry B1G  KE= 1.651301033277D+01
 Symmetry B2G  KE= 8.342823531453D+00
 Symmetry B3G  KE= 1.651301033277D+01
 Symmetry AU   KE= 7.693603771302D-36
 Symmetry B1U  KE= 1.531805706232D+02
 Symmetry B2U  KE= 1.532155621814D+02
 Symmetry B3U  KE= 1.531805706232D+02
 Symmetry AG   SP=-1.273090642456D-14
 Symmetry B1G  SP=-1.120697118664D-16
 Symmetry B2G  SP= 1.000000000000D+00
 Symmetry B3G  SP= 9.176029656092D-17
 Symmetry AU   SP=-8.920456074726D-37
 Symmetry B1U  SP=-1.088607618266D-15
 Symmetry B2U  SP= 1.255890441025D-15
 Symmetry B3U  SP= 4.496334612642D-15
                          Isotropic Fermi Contact Couplings
        Atom                 a.u.       MegaHertz       Gauss      10(-4) cm-1
     1  Co(59)             0.03796      40.15340      14.32773      13.39373
 --------------------------------------------------------
       Center         ----  Spin Dipole Couplings  ----
                      3XX-RR        3YY-RR        3ZZ-RR
 --------------------------------------------------------
     1   Atom        1.728931     -3.457861      1.728931
 --------------------------------------------------------
                        XY            XZ            YZ
 --------------------------------------------------------
     1   Atom        0.000000      0.000000      0.000000
 --------------------------------------------------------


 ---------------------------------------------------------------------------------
              Anisotropic Spin Dipole Couplings in Principal Axis System
 ---------------------------------------------------------------------------------

       Atom             a.u.   MegaHertz   Gauss  10(-4) cm-1        Axes

              Baa    -3.4579  -436.656  -155.810  -145.653 -0.0000  1.0000  0.0000
     1 Co(59) Bbb     1.7289   218.328    77.905    72.826  1.0000  0.0000  0.0000
              Bcc     1.7289   218.328    77.905    72.826  0.0000  0.0000  1.0000
 

 ---------------------------------------------------------------------------------

 No NMR shielding tensors so no spin-rotation constants.
 Leave Link  601 at Fri Jan 14 15:05:02 2022, MaxMem=  1342177280 cpu:               9.6 elap:               0.4
 (Enter /curc/sw/gaussian/16/g16/l801.exe)
 DoSCS=F DFT=T ScalE2(SS,OS)=  1.000000  1.000000
 Range of M.O.s used for correlation:     1    31
 NBasis=    31 NAE=    13 NBE=    12 NFC=     0 NFV=     0
 NROrb=     31 NOA=    13 NOB=    12 NVA=    18 NVB=    19
 Leave Link  801 at Fri Jan 14 15:05:03 2022, MaxMem=  1342177280 cpu:               1.2 elap:               0.1
 (Enter /curc/sw/gaussian/16/g16/l914.exe)
 UHF ground state
 Doing stability rather than CIS.
 Keep R1 and R2 ints in memory in symmetry-blocked form, NReq=30615510.
 FoFCou: FMM=F IPFlag=           0 FMFlag=           0 FMFlg1=           0
         NFxFlg=           0 DoJE=F BraDBF=F KetDBF=F FulRan=T
         wScrn=  0.000000 ICntrl=       600 IOpCl=  0 I1Cent=           0 NGrid=           0
         NMat0=    1 NMatS0=    496 NMatT0=    0 NMatD0=    1 NMtDS0=    0 NMtDT0=    0
 Petite list used in FoFCou.
 MDV=  1342177280 DFT=T DoStab=T Mixed=T DoRPA=F DoScal=F NonHer=F
 NEqPCM:  Using equilibrium solvation (IEInf=0, Eps=  19.2640, EpsInf=   1.8978)
 Making orbital integer symmetry assigments:
 Orbital symmetries:
 Alpha Orbitals:
       Occupied  (A1G) (A1G) (T1U) (T1U) (T1U) (A1G) (T1U) (T1U)
                 (T1U) (T2G) (T2G) (T2G) (?A)
       Virtual   (?A) (?A) (?A) (T1U) (T1U) (T1U) (T2G) (T2G) (T2G)
                 (EG) (EG) (A2U) (?B) (?B) (?B) (?B) (?B) (?B)
 Beta  Orbitals:
       Occupied  (A1G) (A1G) (T1U) (T1U) (T1U) (?A) (?B) (?B) (?B)
                 (?C) (?C) (?A)
       Virtual   (?A) (?C) (?A) (?A) (T1U) (T1U) (T1U) (?C) (?C)
                 (EG) (EG) (?C) (?B) (?B) (?B) (?B) (A2U) (?B)
                 (?B)
    24 initial guesses have been made.
 Convergence on wavefunction:    0.001000000000000
 Davidson Disk Diagonalization:  ConvIn= 1.00D-03 SkipCon=T Conv= 1.00D-03.
 Max sub-space:   924 roots to seek:    24 dimension of matrix:          462
 Iteration     1 Dimension    24 NMult     0 NNew     24
 CISAX will form    24 AO SS matrices at one time.
 NMat=    24 NSing=    24 JSym2X=-1.
 Excitation Energies [eV] at current iteration:
 Root      1 :    -2.618844832945547
 Root      2 :    -2.029563428928127
 Root      3 :    -2.029563428928118
 Root      4 :     0.041754208840243
 Root      5 :     0.041754208840279
 Root      6 :     0.103423824775524
 Root      7 :     0.376268644111900
 Root      8 :     1.728862182966838
 Root      9 :     2.416308378385710
 Root     10 :     2.416308378385819
 Root     11 :     5.061885908256828
 Root     12 :     5.400605568806351
 Root     13 :     5.868084848156854
 Root     14 :     5.868084850093148
 Root     15 :     6.391770383488343
 Root     16 :     6.433316571923096
 Root     17 :     6.433316572044048
 Root     18 :    10.516354634300045
 Root     19 :    10.904090471878009
 Root     20 :    11.336787218085611
 Root     21 :    11.336787245589715
 Root     22 :    11.905002542682274
 Root     23 :    11.905002544309609
 Root     24 :    11.908198738146700
 Iteration     2 Dimension    48 NMult    24 NNew     24
 CISAX will form    24 AO SS matrices at one time.
 NMat=    24 NSing=    24 JSym2X=-1.
 Root      1 not converged, maximum delta is    0.031883493549342
 Excitation Energies [eV] at current iteration:
 Root      1 :    -2.756046708406493   Change is   -0.137201875460946
 Root      2 :    -2.182788584127346   Change is   -0.153225155199219
 Root      3 :    -2.182788584125331   Change is   -0.153225155197213
 Root      4 :     0.001139767694325   Change is   -0.040614441145953
 Root      5 :     0.001139767696573   Change is   -0.040614441143669
 Root      6 :     0.001296541912438   Change is   -0.102127282863087
 Root      7 :     0.158977263536232   Change is   -0.217291380575668
 Root      8 :     1.533714113573841   Change is   -0.195148069392997
 Root      9 :     2.228565309497621   Change is   -0.187743068888089
 Root     10 :     2.228565309499693   Change is   -0.187743068886126
 Root     11 :     5.029221071046630   Change is   -0.032664837210199
 Root     12 :     5.383131709118373   Change is   -0.017473859687978
 Root     13 :     5.836430705555662   Change is   -0.031654142601192
 Root     14 :     5.836430707456416   Change is   -0.031654142636732
 Root     15 :     6.362143000104808   Change is   -0.029627383383536
 Root     16 :     6.410607367881085   Change is   -0.022709204042011
 Root     17 :     6.410607368016532   Change is   -0.022709204027516
 Root     18 :    10.502611151173065   Change is   -0.013743483126981
 Root     19 :    10.897946100766278   Change is   -0.006144371111731
 Root     20 :    11.322797814491670   Change is   -0.013989403593941
 Root     21 :    11.322797841885313   Change is   -0.013989403704404
 Root     22 :    11.896329430885356   Change is   -0.008673111796918
 Root     23 :    11.896329432612120   Change is   -0.008673111697489
 Root     24 :    11.897216378004108   Change is   -0.010982360142592
 Iteration     3 Dimension    51 NMult    48 NNew      3
 CISAX will form     3 AO SS matrices at one time.
 NMat=     3 NSing=     3 JSym2X=-1.
 Root      1 not converged, maximum delta is    0.001547785780185
 Excitation Energies [eV] at current iteration:
 Root      1 :    -2.756601511324570   Change is   -0.000554802918077
 Root      2 :    -2.183570845650220   Change is   -0.000782261522874
 Root      3 :    -2.183570845650205   Change is   -0.000782261524874
 Cease iterating as an instability has been found.
 ***********************************************************************
 Stability analysis using <AA,BB:AA,BB> singles matrix:
 ***********************************************************************
 1PDM for each excited state written to RWF  633
 Ground to excited state transition densities written to RWF  633

 Eigenvectors of the stability matrix:
 
 Excited state symmetry could not be determined.
 Eigenvector   1:  3.462-?Sym  Eigenvalue=-0.1013032  <S**2>=2.747
     13A -> 14A        0.73294
     12B -> 13B       -0.67828
 
 Excited state symmetry could not be determined.
 Eigenvector   2:  3.463-?Sym  Eigenvalue=-0.0802448  <S**2>=2.748
     12A -> 14A        0.71456
     10B -> 13B       -0.69669
 
 Excited state symmetry could not be determined.
 Eigenvector   3:  3.463-?Sym  Eigenvalue=-0.0802448  <S**2>=2.748
     11A -> 14A        0.71456
     11B -> 13B       -0.69669
 The wavefunction has an internal instability.
 Leave Link  914 at Fri Jan 14 15:05:04 2022, MaxMem=  1342177280 cpu:              32.6 elap:               1.2
 (Enter /curc/sw/gaussian/16/g16/l508.exe)
 Keep R1 and R2 ints in memory in symmetry-blocked form, NReq=24406798.
 FoFCou: FMM=F IPFlag=           0 FMFlag=           0 FMFlg1=           0
         NFxFlg=           0 DoJE=F BraDBF=F KetDBF=F FulRan=T
         wScrn=  0.000000 ICntrl=       600 IOpCl=  0 I1Cent=           0 NGrid=           0
         NMat0=    1 NMatS0=    496 NMatT0=    0 NMatD0=    1 NMtDS0=    0 NMtDT0=    0
 Petite list used in FoFCou.
 Tight linear equation convergence will be used.
 UwB97XD wavefunction.
 Quadratic Convergence SCF Method.
 Line search only if initial step raises energy.
 Perform preliminary linear searches along instability eigenvector.
     ILin= 1 X=0.000D+00 Y=-1.382266119907D+03 DE= 0.00D+00
     ILin= 2 X=1.000D-01 Y=-1.382267123850D+03 DE=-1.00D-03
     ILin= 3 X=1.414D-01 Y=-1.382268109706D+03 DE=-1.99D-03
     ILin= 4 X=2.000D-01 Y=-1.382270027703D+03 DE=-3.91D-03
     ILin= 5 X=2.828D-01 Y=-1.382273652558D+03 DE=-7.53D-03
     ILin= 6 X=4.000D-01 Y=-1.382280087292D+03 DE=-1.40D-02
     ILin= 7 X=5.657D-01 Y=-1.382289927717D+03 DE=-2.38D-02
     ILin= 8 X=8.000D-01 Y=-1.382299234820D+03 DE=-3.31D-02
     ILin= 9 X=1.131D+00 Y=-1.382288475663D+03 DE=-2.24D-02
     An  expanding polynomial of degree  9 produced  0.8626
 Iteration F X= 8.626D-01 EE=-1.382299766289844D+03
     ILin= 1 X=0.000D+00 Y=-1.382266119907D+03 DE= 0.00D+00
     ILin= 2 X=1.000D-01 Y=-1.382267123850D+03 DE=-1.00D-03
     ILin= 3 X=1.414D-01 Y=-1.382268109706D+03 DE=-1.99D-03
 The two search directions are symmetric.
 Iteration B X= 8.626D-01 EE=-1.382299766289844D+03
 Take forward step, X= 8.626D-01 Step= 8.626D-01
 Iteration   1 EE= -1382.29976596113                                    Grad=1.078D-01 Max rot=    2.4554 deg.
 Gradient too large for Newton-Raphson -- use scaled steepest descent instead.
 Alpha Gap=     0.425 HL deriv= 7.46D-03
  Beta Gap=     0.434 HL deriv= 3.24D-03
     ILin= 1 X=0.000D+00 Y=-1.382299765961D+03 DE= 0.00D+00 F= -4.83D-03
     ILin= 2 X=3.000D-01 Y=-1.382301002873D+03 DE=-1.24D-03 F= -3.42D-03
     ILin= 3 X=6.000D-01 Y=-1.382301816958D+03 DE=-2.05D-03 F= -2.01D-03
     ILin= 4 X=1.200D+00 Y=-1.382302174918D+03 DE=-2.41D-03 F=  8.16D-04
     Accept linear search using points  3 and  4.
     An  expanding polynomial of degree  4 produced  0.9544
 Iteration   2 EE= -1382.30223327850     Delta-E=       -0.002467317368 Grad=1.241D-02 Max rot=    0.3446 deg.
 Gradient too large for Newton-Raphson -- use scaled steepest descent instead.
 Alpha Gap=     0.422 HL deriv= 1.29D-02
  Beta Gap=     0.432 HL deriv= 1.64D-03
     ILin= 1 X=0.000D+00 Y=-1.382302233278D+03 DE= 0.00D+00 F= -2.80D-04
     ILin= 2 X=5.000D-01 Y=-1.382302352169D+03 DE=-1.19D-04 F= -1.96D-04
     ILin= 3 X=1.100D+00 Y=-1.382302439402D+03 DE=-2.06D-04 F= -9.52D-05
     ILin= 4 X=2.100D+00 Y=-1.382302451228D+03 DE=-2.18D-04 F=  7.12D-05
     Accept linear search using points  3 and  4.
     An  expanding polynomial of degree  4 produced  1.6707
 Iteration   3 EE= -1382.30246653035     Delta-E=       -0.000233251853 Grad=1.378D-02 Max rot=    0.2478 deg.
 Gradient too large for Newton-Raphson -- use scaled steepest descent instead.
 Alpha Gap=     0.423 HL deriv= 9.67D-03
  Beta Gap=     0.434 HL deriv= 1.37D-03
     ILin= 1 X=0.000D+00 Y=-1.382302466530D+03 DE= 0.00D+00 F= -2.58D-04
     ILin= 2 X=1.300D+00 Y=-1.382302553340D+03 DE=-8.68D-05 F=  1.25D-04
     Accept linear search using points  1 and  2.
     An  expanding polynomial of degree  2 produced  0.9584
 Iteration   4 EE= -1382.30257868244     Delta-E=       -0.000112152094 Grad=8.396D-03 Max rot=    0.2005 deg.
 QCNR:  CnvC1=2.15D-09 CnvC2=2.15D-08
 LinEq1:  Iter=  0 NonCon=     1 RMS=4.52D-04 Max=8.40D-03 NDo=     1
 AX will form     1 AO Fock derivatives at one time.
 LinEq1:  Iter=  1 NonCon=     1 RMS=2.78D-04 Max=2.13D-03 NDo=     1
 LinEq1:  Iter=  2 NonCon=     1 RMS=6.33D-05 Max=1.22D-03 NDo=     1
 LinEq1:  Iter=  3 NonCon=     1 RMS=4.72D-06 Max=6.05D-05 NDo=     1
 LinEq1:  Iter=  4 NonCon=     1 RMS=6.97D-07 Max=8.40D-06 NDo=     1
 LinEq1:  Iter=  5 NonCon=     1 RMS=9.37D-08 Max=1.10D-06 NDo=     1
 LinEq1:  Iter=  6 NonCon=     1 RMS=7.75D-09 Max=6.64D-08 NDo=     1
 LinEq1:  Iter=  7 NonCon=     0 RMS=1.10D-09 Max=1.13D-08 NDo=     1
 Linear equations converged to 2.149D-09 2.149D-08 after     7 iterations.
 Angle between quadratic step and gradient=  65.35 degrees.
     ILin= 1 X=0.000D+00 Y=-1.382302578682D+03 DE= 0.00D+00 F= -2.08D-03
     ILin= 2 X=1.000D+00 Y=-1.382303662108D+03 DE=-1.08D-03 F= -1.03D-04
     Reject lnstep minimum 1.053D+00 FVal=-1.382303664829D+03 Lims=  0.00D+00  1.00D+00
     ILin= 3 X=1.400D+00 Y=-1.382303543084D+03 DE=-9.64D-04 F=  7.02D-04
     An  expanding polynomial of degree  3 produced  1.0492
     Minimum is close to point  2 DX=  4.92D-02 DF= -2.38D-06 DXR=  4.69D-02 DFR=  2.20D-03 which will be used.
 Iteration   5 EE= -1382.30366210840     Delta-E=       -0.001083425953 Grad=1.142D-02 Max rot=    0.2929 deg.
 Gradient too large for Newton-Raphson -- use scaled steepest descent instead.
 Alpha Gap=     0.371 HL deriv= 3.00D-12
  Beta Gap=     0.387 HL deriv= 1.70D-12
     ILin= 1 X=0.000D+00 Y=-1.382303662108D+03 DE= 0.00D+00 F= -6.65D-05
     ILin= 2 X=1.300D+00 Y=-1.382303710168D+03 DE=-4.81D-05 F= -7.47D-06
     Reject lnstep minimum 1.367D+00 FVal=-1.382303710362D+03 Lims=  0.00D+00  1.30D+00
     ILin= 3 X=2.500D+00 Y=-1.382303686473D+03 DE=-2.44D-05 F=  4.70D-05
     An  expanding polynomial of degree  3 produced  1.4648
 Iteration   6 EE= -1382.30371078330     Delta-E=       -0.000048674905 Grad=3.967D-03 Max rot=    0.0924 deg.
 QCNR:  CnvC1=2.15D-09 CnvC2=2.15D-08
 LinEq1:  Iter=  0 NonCon=     1 RMS=1.59D-04 Max=2.91D-03 NDo=     1
 LinEq1:  Iter=  1 NonCon=     1 RMS=2.65D-05 Max=2.90D-04 NDo=     1
 LinEq1:  Iter=  2 NonCon=     1 RMS=1.15D-05 Max=1.80D-04 NDo=     1
 LinEq1:  Iter=  3 NonCon=     1 RMS=4.49D-06 Max=3.33D-05 NDo=     1
 LinEq1:  Iter=  4 NonCon=     1 RMS=9.90D-07 Max=7.54D-06 NDo=     1
 LinEq1:  Iter=  5 NonCon=     1 RMS=5.42D-08 Max=5.07D-07 NDo=     1
 LinEq1:  Iter=  6 NonCon=     1 RMS=6.89D-09 Max=1.05D-07 NDo=     1
 LinEq1:  Iter=  7 NonCon=     0 RMS=1.14D-09 Max=1.00D-08 NDo=     1
 Linear equations converged to 2.149D-09 2.149D-08 after     7 iterations.
 Angle between quadratic step and gradient=  79.72 degrees.
     ILin= 1 X=0.000D+00 Y=-1.382303710783D+03 DE= 0.00D+00 F= -8.26D-05
     ILin= 2 X=1.000D+00 Y=-1.382303753565D+03 DE=-4.28D-05 F= -4.43D-06
     Reject lnstep minimum 1.060D+00 FVal=-1.382303753698D+03 Lims=  0.00D+00  1.00D+00
     ILin= 3 X=1.800D+00 Y=-1.382303734227D+03 DE=-2.34D-05 F=  5.19D-05
     An  expanding polynomial of degree  3 produced  1.0751
     Minimum is close to point  2 DX=  7.51D-02 DF= -2.10D-07 DXR=  6.98D-02 DFR=  4.90D-03 which will be used.
 Iteration   7 EE= -1382.30375356481     Delta-E=       -0.000042781509 Grad=4.385D-04 Max rot=    0.0142 deg.
 QCNR:  CnvC1=2.15D-09 CnvC2=2.15D-08
 LinEq1:  Iter=  0 NonCon=     1 RMS=7.11D-06 Max=1.22D-04 NDo=     1
 LinEq1:  Iter=  1 NonCon=     1 RMS=2.49D-06 Max=3.01D-05 NDo=     1
 LinEq1:  Iter=  2 NonCon=     1 RMS=8.13D-07 Max=1.42D-05 NDo=     1
 LinEq1:  Iter=  3 NonCon=     1 RMS=2.64D-07 Max=2.54D-06 NDo=     1
 LinEq1:  Iter=  4 NonCon=     1 RMS=1.07D-07 Max=1.03D-06 NDo=     1
 LinEq1:  Iter=  5 NonCon=     1 RMS=2.72D-08 Max=3.23D-07 NDo=     1
 LinEq1:  Iter=  6 NonCon=     1 RMS=4.16D-09 Max=3.90D-08 NDo=     1
 LinEq1:  Iter=  7 NonCon=     0 RMS=3.01D-10 Max=3.01D-09 NDo=     1
 Linear equations converged to 2.149D-09 2.149D-08 after     7 iterations.
 Angle between quadratic step and gradient=  84.07 degrees.
     ILin= 1 X=0.000D+00 Y=-1.382303753565D+03 DE= 0.00D+00 F= -4.53D-07
     ILin= 2 X=1.000D+00 Y=-1.382303753793D+03 DE=-2.28D-07 F= -4.77D-09
     Reject lnstep minimum 1.011D+00 FVal=-1.382303753793D+03 Lims=  0.00D+00  1.00D+00
     ILin= 3 X=2.000D+00 Y=-1.382303753577D+03 DE=-1.22D-08 F=  4.35D-07
     An  expanding polynomial of degree  3 produced  1.0137
     Minimum is close to point  2 DX=  1.37D-02 DF= -4.16D-11 DXR=  1.35D-02 DFR=  1.82D-04 which will be used.
 Iteration   8 EE= -1382.30375379283     Delta-E=       -0.000000228024 Grad=1.062D-05 Max rot=    0.0003 deg.
 QCNR:  CnvC1=1.06D-10 CnvC2=1.06D-09
 LinEq1:  Iter=  0 NonCon=     1 RMS=1.15D-07 Max=1.19D-06 NDo=     1
 LinEq1:  Iter=  1 NonCon=     1 RMS=5.27D-08 Max=9.31D-07 NDo=     1
 LinEq1:  Iter=  2 NonCon=     1 RMS=1.35D-08 Max=2.23D-07 NDo=     1
 LinEq1:  Iter=  3 NonCon=     1 RMS=3.55D-09 Max=4.11D-08 NDo=     1
 LinEq1:  Iter=  4 NonCon=     1 RMS=5.72D-10 Max=6.05D-09 NDo=     1
 LinEq1:  Iter=  5 NonCon=     1 RMS=1.23D-10 Max=1.17D-09 NDo=     1
 LinEq1:  Iter=  6 NonCon=     0 RMS=4.67D-11 Max=4.34D-10 NDo=     1
 Linear equations converged to 1.062D-10 1.062D-09 after     6 iterations.
 Angle between quadratic step and gradient=  86.06 degrees.
     ILin= 1 X=0.000D+00 Y=-1.382303753793D+03 DE= 0.00D+00 F= -8.55D-11
     ILin= 2 X=1.000D+00 Y=-1.382303753793D+03 DE=-4.07D-11
 Iteration   9 EE= -1382.30375379287     Delta-E=       -0.000000000041 Grad=1.083D-06 Max rot=    0.0000 deg.
 QCNR:  CnvC1=1.08D-11 CnvC2=1.08D-10
 LinEq1:  Iter=  0 NonCon=     1 RMS=8.90D-09 Max=8.27D-08 NDo=     1
 LinEq1:  Iter=  1 NonCon=     1 RMS=3.94D-09 Max=2.90D-08 NDo=     1
 LinEq1:  Iter=  2 NonCon=     1 RMS=1.54D-09 Max=1.52D-08 NDo=     1
 LinEq1:  Iter=  3 NonCon=     1 RMS=2.92D-10 Max=4.46D-09 NDo=     1
 LinEq1:  Iter=  4 NonCon=     1 RMS=1.13D-10 Max=9.90D-10 NDo=     1
 LinEq1:  Iter=  5 NonCon=     1 RMS=3.07D-11 Max=5.29D-10 NDo=     1
 LinEq1:  Iter=  6 NonCon=     0 RMS=6.20D-12 Max=4.43D-11 NDo=     1
 Linear equations converged to 1.083D-11 1.083D-10 after     6 iterations.
 Angle between quadratic step and gradient=  90.00 degrees.
     ILin= 1 X=0.000D+00 Y=-1.382303753793D+03 DE= 0.00D+00 F= -2.10D-13
     ILin= 2 X=1.000D+00 Y=-1.382303753793D+03 DE=-2.27D-13
 Iteration  10 EE= -1382.30375379287     Delta-E=       -0.000000000000 Grad=1.223D-07 Max rot=    0.0000 deg.
 Error on total polarization charges =  0.00686
 Rotation gradient small -- convergence achieved.
 Orbital symmetries in SymMO:
    1=1    2=1    3=8    4=6    5=7    6=1    7=8    8=6    9=7   10=3
   11=1   12=4   13=2   14=1   15=1   16=1   17=8   18=7   19=6   20=3
   21=4   22=1   23=2   24=1   25=6   26=8   27=5   28=7   29=8   30=7
   31=6
 Orbital symmetries in SymMO:
    1=1    2=1    3=6    4=8    5=7    6=1    7=6    8=7    9=8   10=1
   11=4   12=2   13=3   14=1   15=1   16=1   17=6   18=7   19=8   20=1
   21=2   22=4   23=3   24=1   25=6   26=7   27=8   28=5   29=8   30=7
   31=6
 SCF Done:  E(UwB97XD) =  -1382.30375379     a.u. after   10 cycles
            Convg  =    0.1223D-06                    65 Fock formations.
              S**2 =  1.6924                  -V/T =  2.0020
 <Sx>= 0.0000 <Sy>= 0.0000 <Sz>= 0.5000 <S**2>= 1.6924 S= 0.8937
 <L.S>=  0.00000000000    
 SMD-CDS (non-electrostatic) energy       (kcal/mol) =       0.45
 (included in total energy above)
 Annihilation of the first spin contaminant:
 S**2 before annihilation     1.6924,   after     0.7517
 Leave Link  508 at Fri Jan 14 15:05:10 2022, MaxMem=  1342177280 cpu:             149.5 elap:               5.5
 (Enter /curc/sw/gaussian/16/g16/l801.exe)
 DoSCS=F DFT=T ScalE2(SS,OS)=  1.000000  1.000000
 Range of M.O.s used for correlation:     1    31
 NBasis=    31 NAE=    13 NBE=    12 NFC=     0 NFV=     0
 NROrb=     31 NOA=    13 NOB=    12 NVA=    18 NVB=    19
 Leave Link  801 at Fri Jan 14 15:05:11 2022, MaxMem=  1342177280 cpu:               1.5 elap:               0.1
 (Enter /curc/sw/gaussian/16/g16/l914.exe)
 UHF ground state
 Doing stability rather than CIS.
 Keep R1 and R2 ints in memory in symmetry-blocked form, NReq=30615510.
 FoFCou: FMM=F IPFlag=           0 FMFlag=           0 FMFlg1=           0
         NFxFlg=           0 DoJE=F BraDBF=F KetDBF=F FulRan=T
         wScrn=  0.000000 ICntrl=       600 IOpCl=  0 I1Cent=           0 NGrid=           0
         NMat0=    1 NMatS0=    496 NMatT0=    0 NMatD0=    1 NMtDS0=    0 NMtDT0=    0
 Petite list used in FoFCou.
 MDV=  1342177280 DFT=T DoStab=T Mixed=T DoRPA=F DoScal=F NonHer=F
 NEqPCM:  Using equilibrium solvation (IEInf=0, Eps=  19.2640, EpsInf=   1.8978)
 Making orbital integer symmetry assigments:
 Orbital symmetries:
 Alpha Orbitals:
       Occupied  (A1G) (A1G) (T1U) (T1U) (T1U) (?A) (?B) (?B) (?B)
                 (?C) (?A) (?C) (?C)
       Virtual   (?A) (?A) (?A) (T1U) (T1U) (T1U) (?C) (?C) (?A)
                 (?C) (?A) (?B) (?B) (A2U) (?B) (?B) (?B) (?B)
 Beta  Orbitals:
       Occupied  (A1G) (A1G) (T1U) (T1U) (T1U) (?A) (?B) (?B) (?B)
                 (?A) (?C) (?C)
       Virtual   (?C) (?A) (?A) (?A) (T1U) (T1U) (T1U) (?A) (?C)
                 (?C) (?C) (?A) (?B) (?B) (?B) (A2U) (?B) (?B)
                 (?B)
    24 initial guesses have been made.
 Convergence on wavefunction:    0.001000000000000
 Davidson Disk Diagonalization:  ConvIn= 1.00D-03 SkipCon=T Conv= 1.00D-03.
 Max sub-space:   924 roots to seek:    24 dimension of matrix:          462
 Iteration     1 Dimension    24 NMult     0 NNew     24
 CISAX will form    24 AO SS matrices at one time.
 NMat=    24 NSing=    24 JSym2X=-1.
 New state      1 was old state      2
 Excitation Energies [eV] at current iteration:
 Root      1 :    -0.340055605931745
 Root      2 :    -0.253584584929441
 Root      3 :     0.093970720662685
 Root      4 :     0.100928973099403
 Root      5 :     0.171582493874466
 Root      6 :     0.381912380090009
 Root      7 :     1.895622504556767
 Root      8 :     2.030790532413961
 Root      9 :     2.446852681452834
 Root     10 :     4.313573753398911
 Root     11 :     5.246655677526034
 Root     12 :     5.305130036871254
 Root     13 :     5.501209532443762
 Root     14 :     6.032909522747323
 Root     15 :     6.479085256891327
 Root     16 :     6.702969109452285
 Root     17 :     7.849653795102724
 Root     18 :    10.646009751656710
 Root     19 :    10.713219451707499
 Root     20 :    10.986818446614519
 Root     21 :    11.236065968121727
 Root     22 :    11.509004592722491
 Root     23 :    11.950424698885554
 Root     24 :    12.114485102178843
 Iteration     2 Dimension    48 NMult    24 NNew     24
 CISAX will form    24 AO SS matrices at one time.
 NMat=    24 NSing=    24 JSym2X=-1.
 Root      1 not converged, maximum delta is    0.024245360512376
 Excitation Energies [eV] at current iteration:
 Root      1 :    -0.446650138482667   Change is   -0.106594532550921
 Root      2 :    -0.346031342494497   Change is   -0.092446757565056
 Root      3 :     0.000344591025156   Change is   -0.100584382074246
 Root      4 :     0.000611556235213   Change is   -0.093359164427472
 Root      5 :     0.000954190760941   Change is   -0.170628303113525
 Root      6 :     0.197455408548622   Change is   -0.184456971541388
 Root      7 :     1.641728126042461   Change is   -0.253894378514305
 Root      8 :     1.803911983097793   Change is   -0.226878549316168
 Root      9 :     2.363525475603725   Change is   -0.083327205849109
 Root     10 :     4.079817683017018   Change is   -0.233756070381893
 Root     11 :     5.210857400089830   Change is   -0.035798277436204
 Root     12 :     5.273690308546001   Change is   -0.031439728325253
 Root     13 :     5.484606239054964   Change is   -0.016603293388799
 Root     14 :     6.009717698302257   Change is   -0.023191824445066
 Root     15 :     6.450992032708369   Change is   -0.028093224182959
 Root     16 :     6.677133016266539   Change is   -0.025836093185747
 Root     17 :     7.322158757037313   Change is   -0.527495038065412
 Root     18 :    10.630861922834407   Change is   -0.015147828822301
 Root     19 :    10.700140891633117   Change is   -0.013078560074382
 Root     20 :    10.980886063065384   Change is   -0.005932383549134
 Root     21 :    11.061602501875354   Change is   -0.174463466246373
 Root     22 :    11.500224313089234   Change is   -0.008780279633257
 Root     23 :    11.939395932492888   Change is   -0.011028766392666
 Root     24 :    12.104205255748997   Change is   -0.010279846429845
 Iteration     3 Dimension    51 NMult    48 NNew      3
 CISAX will form     3 AO SS matrices at one time.
 NMat=     3 NSing=     3 JSym2X=-1.
 Root      1 not converged, maximum delta is    0.001478423909136
 Excitation Energies [eV] at current iteration:
 Root      1 :    -0.447334905925601   Change is   -0.000684767442935
 Root      2 :    -0.346315338247752   Change is   -0.000283995753255
 Root      3 :    -0.000404663843346   Change is   -0.000749254868502
 Cease iterating as an instability has been found.
 ***********************************************************************
 Stability analysis using <AA,BB:AA,BB> singles matrix:
 ***********************************************************************
 1PDM for each excited state written to RWF  633
 Ground to excited state transition densities written to RWF  633

 Eigenvectors of the stability matrix:
 
 Excited state symmetry could not be determined.
 Eigenvector   1:  2.900-?Sym  Eigenvalue=-0.0164393  <S**2>=1.853
     12A -> 14A       -0.63964
     11B -> 14B        0.40930
     12B -> 13B        0.64849
 
 Excited state symmetry could not be determined.
 Eigenvector   2:  2.904-?Sym  Eigenvalue=-0.0127269  <S**2>=1.858
     13A -> 14A        0.72862
     11B -> 13B        0.58145
     12B -> 14B       -0.35876
 
 Excited state symmetry could not be determined.
 Eigenvector   3:  2.796-?Sym  Eigenvalue=-0.0000149  <S**2>=1.705
     11B -> 13B        0.44981
     12B -> 14B        0.88735
 The wavefunction has an internal instability.
 Leave Link  914 at Fri Jan 14 15:05:12 2022, MaxMem=  1342177280 cpu:              29.2 elap:               1.1
 (Enter /curc/sw/gaussian/16/g16/l508.exe)
 Keep R1 and R2 ints in memory in symmetry-blocked form, NReq=24406798.
 FoFCou: FMM=F IPFlag=           0 FMFlag=           0 FMFlg1=           0
         NFxFlg=           0 DoJE=F BraDBF=F KetDBF=F FulRan=T
         wScrn=  0.000000 ICntrl=       600 IOpCl=  0 I1Cent=           0 NGrid=           0
         NMat0=    1 NMatS0=    496 NMatT0=    0 NMatD0=    1 NMtDS0=    0 NMtDT0=    0
 Petite list used in FoFCou.
 Tight linear equation convergence will be used.
 UwB97XD wavefunction.
 Quadratic Convergence SCF Method.
 Line search only if initial step raises energy.
 Perform preliminary linear searches along instability eigenvector.
     ILin= 1 X=0.000D+00 Y=-1.382303753793D+03 DE= 0.00D+00
     ILin= 2 X=1.000D-01 Y=-1.382303916521D+03 DE=-1.63D-04
     ILin= 3 X=1.414D-01 Y=-1.382304075937D+03 DE=-3.22D-04
     ILin= 4 X=2.000D-01 Y=-1.382304384898D+03 DE=-6.31D-04
     ILin= 5 X=2.828D-01 Y=-1.382304963888D+03 DE=-1.21D-03
     ILin= 6 X=4.000D-01 Y=-1.382305970744D+03 DE=-2.22D-03
     ILin= 7 X=5.657D-01 Y=-1.382307416446D+03 DE=-3.66D-03
     ILin= 8 X=8.000D-01 Y=-1.382308311986D+03 DE=-4.56D-03
     ILin= 9 X=1.131D+00 Y=-1.382304023392D+03 DE=-2.70D-04
     An  expanding polynomial of degree  9 produced  0.7736
 Iteration F X= 7.736D-01 EE=-1.382308330606257D+03
     ILin= 1 X=0.000D+00 Y=-1.382303753793D+03 DE= 0.00D+00
     ILin= 2 X=1.000D-01 Y=-1.382303916521D+03 DE=-1.63D-04
     ILin= 3 X=1.414D-01 Y=-1.382304075937D+03 DE=-3.22D-04
 The two search directions are symmetric.
 Iteration B X= 7.736D-01 EE=-1.382308330606257D+03
 Take forward step, X= 7.736D-01 Step= 7.736D-01
 Iteration   1 EE= -1382.30833076984                                    Grad=5.787D-02 Max rot=    1.2800 deg.
 Gradient too large for Newton-Raphson -- use scaled steepest descent instead.
 Alpha Gap=     0.392 HL deriv= 1.13D-17
  Beta Gap=     0.404 HL deriv= 2.52D-03
     ILin= 1 X=0.000D+00 Y=-1.382308330770D+03 DE= 0.00D+00 F= -1.31D-03
     ILin= 2 X=3.000D-01 Y=-1.382308667461D+03 DE=-3.37D-04 F= -9.32D-04
     ILin= 3 X=6.000D-01 Y=-1.382308889717D+03 DE=-5.59D-04 F= -5.50D-04
     ILin= 4 X=1.200D+00 Y=-1.382308991016D+03 DE=-6.60D-04 F=  2.12D-04
     Accept linear search using points  3 and  4.
     An  expanding polynomial of degree  4 produced  0.9574
 Iteration   2 EE= -1382.30900515378     Delta-E=       -0.000674383936 Grad=5.649D-03 Max rot=    0.1083 deg.
 QCNR:  CnvC1=2.15D-09 CnvC2=2.15D-08
 LinEq1:  Iter=  0 NonCon=     1 RMS=2.34D-04 Max=3.03D-03 NDo=     1
 AX will form     1 AO Fock derivatives at one time.
 LinEq1:  Iter=  1 NonCon=     1 RMS=6.92D-05 Max=6.58D-04 NDo=     1
 LinEq1:  Iter=  2 NonCon=     1 RMS=2.33D-05 Max=1.72D-04 NDo=     1
 LinEq1:  Iter=  3 NonCon=     1 RMS=1.04D-05 Max=9.98D-05 NDo=     1
 LinEq1:  Iter=  4 NonCon=     1 RMS=2.34D-06 Max=2.49D-05 NDo=     1
 LinEq1:  Iter=  5 NonCon=     1 RMS=7.89D-07 Max=5.22D-06 NDo=     1
 LinEq1:  Iter=  6 NonCon=     1 RMS=1.79D-07 Max=2.45D-06 NDo=     1
 LinEq1:  Iter=  7 NonCon=     1 RMS=5.18D-08 Max=4.61D-07 NDo=     1
 LinEq1:  Iter=  8 NonCon=     1 RMS=1.18D-08 Max=1.31D-07 NDo=     1
 LinEq1:  Iter=  9 NonCon=     1 RMS=2.80D-09 Max=2.26D-08 NDo=     1
 LinEq1:  Iter= 10 NonCon=     0 RMS=2.82D-10 Max=2.52D-09 NDo=     1
 Linear equations converged to 2.149D-09 2.149D-08 after    10 iterations.
 Angle between quadratic step and gradient=  77.25 degrees.
     ILin= 1 X=0.000D+00 Y=-1.382309005154D+03 DE= 0.00D+00 F= -3.92D-04
     ILin= 2 X=1.000D+00 Y=-1.382309206632D+03 DE=-2.01D-04 F= -1.45D-05
     Reject lnstep minimum 1.040D+00 FVal=-1.382309206919D+03 Lims=  0.00D+00  1.00D+00
     ILin= 3 X=1.600D+00 Y=-1.382309148960D+03 DE=-1.44D-04 F=  2.07D-04
     An  expanding polynomial of degree  3 produced  1.0416
     Minimum is close to point  2 DX=  4.16D-02 DF= -3.22D-07 DXR=  3.99D-02 DFR=  1.60D-03 which will be used.
 Iteration   3 EE= -1382.30920663161     Delta-E=       -0.000201477832 Grad=5.380D-03 Max rot=    0.1141 deg.
 QCNR:  CnvC1=2.15D-09 CnvC2=2.15D-08
 LinEq1:  Iter=  0 NonCon=     1 RMS=7.30D-05 Max=8.25D-04 NDo=     1
 LinEq1:  Iter=  1 NonCon=     1 RMS=2.28D-05 Max=2.56D-04 NDo=     1
 LinEq1:  Iter=  2 NonCon=     1 RMS=6.51D-06 Max=5.85D-05 NDo=     1
 LinEq1:  Iter=  3 NonCon=     1 RMS=1.62D-06 Max=1.54D-05 NDo=     1
 LinEq1:  Iter=  4 NonCon=     1 RMS=7.24D-07 Max=6.33D-06 NDo=     1
 LinEq1:  Iter=  5 NonCon=     1 RMS=4.44D-07 Max=3.19D-06 NDo=     1
 LinEq1:  Iter=  6 NonCon=     1 RMS=1.20D-07 Max=1.44D-06 NDo=     1
 LinEq1:  Iter=  7 NonCon=     1 RMS=2.55D-08 Max=2.10D-07 NDo=     1
 LinEq1:  Iter=  8 NonCon=     1 RMS=3.54D-09 Max=3.16D-08 NDo=     1
 LinEq1:  Iter=  9 NonCon=     0 RMS=7.88D-10 Max=7.42D-09 NDo=     1
 Linear equations converged to 2.149D-09 2.149D-08 after     9 iterations.
 Angle between quadratic step and gradient=  86.99 degrees.
     ILin= 1 X=0.000D+00 Y=-1.382309206632D+03 DE= 0.00D+00 F= -2.42D-05
     ILin= 2 X=1.000D+00 Y=-1.382309218812D+03 DE=-1.22D-05 F= -2.90D-07
     Reject lnstep minimum 1.012D+00 FVal=-1.382309218814D+03 Lims=  0.00D+00  1.00D+00
     ILin= 3 X=2.000D+00 Y=-1.382309207341D+03 DE=-7.09D-07 F=  2.32D-05
     An  expanding polynomial of degree  3 produced  1.0150
     Minimum is close to point  2 DX=  1.50D-02 DF= -2.66D-09 DXR=  1.48D-02 DFR=  2.18D-04 which will be used.
 Iteration   4 EE= -1382.30921881175     Delta-E=       -0.000012180138 Grad=8.114D-04 Max rot=    0.0128 deg.
 QCNR:  CnvC1=2.15D-09 CnvC2=2.15D-08
 LinEq1:  Iter=  0 NonCon=     1 RMS=7.64D-06 Max=6.91D-05 NDo=     1
 LinEq1:  Iter=  1 NonCon=     1 RMS=2.05D-06 Max=2.02D-05 NDo=     1
 LinEq1:  Iter=  2 NonCon=     1 RMS=4.90D-07 Max=6.02D-06 NDo=     1
 LinEq1:  Iter=  3 NonCon=     1 RMS=1.58D-07 Max=1.47D-06 NDo=     1
 LinEq1:  Iter=  4 NonCon=     1 RMS=7.55D-08 Max=7.02D-07 NDo=     1
 LinEq1:  Iter=  5 NonCon=     1 RMS=2.89D-08 Max=3.03D-07 NDo=     1
 LinEq1:  Iter=  6 NonCon=     1 RMS=7.64D-09 Max=6.16D-08 NDo=     1
 LinEq1:  Iter=  7 NonCon=     1 RMS=2.23D-09 Max=2.20D-08 NDo=     1
 LinEq1:  Iter=  8 NonCon=     0 RMS=6.71D-10 Max=6.23D-09 NDo=     1
 Linear equations converged to 2.149D-09 2.149D-08 after     8 iterations.
 Angle between quadratic step and gradient=  81.20 degrees.
     ILin= 1 X=0.000D+00 Y=-1.382309218812D+03 DE= 0.00D+00 F= -1.88D-07
     ILin= 2 X=1.000D+00 Y=-1.382309218903D+03 DE=-9.11D-08 F=  5.88D-09
     Accept linear search using points  1 and  2.
     An  expanding polynomial of degree  2 produced  0.9697
     Minimum is close to point  2 DX= -3.03D-02 DF= -8.91D-11 DXR=  3.13D-02 DFR=  9.78D-04 which will be used.
 Iteration   5 EE= -1382.30921890286     Delta-E=       -0.000000091113 Grad=9.103D-05 Max rot=    0.0014 deg.
 QCNR:  CnvC1=9.10D-10 CnvC2=9.10D-09
 LinEq1:  Iter=  0 NonCon=     1 RMS=1.16D-06 Max=1.07D-05 NDo=     1
 LinEq1:  Iter=  1 NonCon=     1 RMS=5.93D-07 Max=7.84D-06 NDo=     1
 LinEq1:  Iter=  2 NonCon=     1 RMS=1.81D-07 Max=1.34D-06 NDo=     1
 LinEq1:  Iter=  3 NonCon=     1 RMS=6.35D-08 Max=8.49D-07 NDo=     1
 LinEq1:  Iter=  4 NonCon=     1 RMS=1.51D-08 Max=1.37D-07 NDo=     1
 LinEq1:  Iter=  5 NonCon=     1 RMS=6.45D-09 Max=4.98D-08 NDo=     1
 LinEq1:  Iter=  6 NonCon=     1 RMS=3.82D-09 Max=2.91D-08 NDo=     1
 LinEq1:  Iter=  7 NonCon=     1 RMS=1.21D-09 Max=1.12D-08 NDo=     1
 LinEq1:  Iter=  8 NonCon=     0 RMS=3.32D-10 Max=2.40D-09 NDo=     1
 Linear equations converged to 9.103D-10 9.103D-09 after     8 iterations.
 Angle between quadratic step and gradient=  86.33 degrees.
     ILin= 1 X=0.000D+00 Y=-1.382309218903D+03 DE= 0.00D+00 F= -7.25D-09
     ILin= 2 X=1.000D+00 Y=-1.382309218906D+03 DE=-3.05D-09
 Iteration   6 EE= -1382.30921890591     Delta-E=       -0.000000003051 Grad=6.530D-05 Max rot=    0.0012 deg.
 QCNR:  CnvC1=6.53D-10 CnvC2=6.53D-09
 LinEq1:  Iter=  0 NonCon=     1 RMS=8.70D-07 Max=6.29D-06 NDo=     1
 LinEq1:  Iter=  1 NonCon=     1 RMS=4.57D-07 Max=5.46D-06 NDo=     1
 LinEq1:  Iter=  2 NonCon=     1 RMS=1.53D-07 Max=1.32D-06 NDo=     1
 LinEq1:  Iter=  3 NonCon=     1 RMS=5.94D-08 Max=6.35D-07 NDo=     1
 LinEq1:  Iter=  4 NonCon=     1 RMS=2.94D-08 Max=2.81D-07 NDo=     1
 LinEq1:  Iter=  5 NonCon=     1 RMS=9.98D-09 Max=8.57D-08 NDo=     1
 LinEq1:  Iter=  6 NonCon=     1 RMS=3.23D-09 Max=2.63D-08 NDo=     1
 LinEq1:  Iter=  7 NonCon=     1 RMS=9.16D-10 Max=1.27D-08 NDo=     1
 LinEq1:  Iter=  8 NonCon=     0 RMS=2.88D-10 Max=3.05D-09 NDo=     1
 Linear equations converged to 6.530D-10 6.530D-09 after     8 iterations.
 Angle between quadratic step and gradient=  84.33 degrees.
     ILin= 1 X=0.000D+00 Y=-1.382309218906D+03 DE= 0.00D+00 F= -2.77D-09
     ILin= 2 X=1.000D+00 Y=-1.382309218907D+03 DE=-1.34D-09
 Iteration   7 EE= -1382.30921890725     Delta-E=       -0.000000001336 Grad=2.280D-05 Max rot=    0.0004 deg.
 QCNR:  CnvC1=2.28D-10 CnvC2=2.28D-09
 LinEq1:  Iter=  0 NonCon=     1 RMS=3.27D-07 Max=3.47D-06 NDo=     1
 LinEq1:  Iter=  1 NonCon=     1 RMS=1.65D-07 Max=2.23D-06 NDo=     1
 LinEq1:  Iter=  2 NonCon=     1 RMS=5.47D-08 Max=4.88D-07 NDo=     1
 LinEq1:  Iter=  3 NonCon=     1 RMS=1.77D-08 Max=2.57D-07 NDo=     1
 LinEq1:  Iter=  4 NonCon=     1 RMS=4.65D-09 Max=4.15D-08 NDo=     1
 LinEq1:  Iter=  5 NonCon=     1 RMS=2.04D-09 Max=1.96D-08 NDo=     1
 LinEq1:  Iter=  6 NonCon=     1 RMS=1.13D-09 Max=9.08D-09 NDo=     1
 LinEq1:  Iter=  7 NonCon=     1 RMS=3.69D-10 Max=3.64D-09 NDo=     1
 LinEq1:  Iter=  8 NonCon=     0 RMS=9.87D-11 Max=1.07D-09 NDo=     1
 Linear equations converged to 2.280D-10 2.280D-09 after     8 iterations.
 Angle between quadratic step and gradient=  86.37 degrees.
     ILin= 1 X=0.000D+00 Y=-1.382309218907D+03 DE= 0.00D+00 F= -9.86D-10
     ILin= 2 X=1.000D+00 Y=-1.382309218908D+03 DE=-3.51D-10
 Iteration   8 EE= -1382.30921890760     Delta-E=       -0.000000000351 Grad=3.006D-05 Max rot=    0.0006 deg.
 QCNR:  CnvC1=3.01D-10 CnvC2=3.01D-09
 LinEq1:  Iter=  0 NonCon=     1 RMS=4.11D-07 Max=4.49D-06 NDo=     1
 LinEq1:  Iter=  1 NonCon=     1 RMS=2.28D-07 Max=3.27D-06 NDo=     1
 LinEq1:  Iter=  2 NonCon=     1 RMS=7.13D-08 Max=5.78D-07 NDo=     1
 LinEq1:  Iter=  3 NonCon=     1 RMS=2.87D-08 Max=3.00D-07 NDo=     1
 LinEq1:  Iter=  4 NonCon=     1 RMS=1.31D-08 Max=1.06D-07 NDo=     1
 LinEq1:  Iter=  5 NonCon=     1 RMS=5.71D-09 Max=7.17D-08 NDo=     1
 LinEq1:  Iter=  6 NonCon=     1 RMS=1.72D-09 Max=1.35D-08 NDo=     1
 LinEq1:  Iter=  7 NonCon=     1 RMS=4.85D-10 Max=6.60D-09 NDo=     1
 LinEq1:  Iter=  8 NonCon=     0 RMS=1.49D-10 Max=1.30D-09 NDo=     1
 Linear equations converged to 3.006D-10 3.006D-09 after     8 iterations.
 Angle between quadratic step and gradient=  84.76 degrees.
     ILin= 1 X=0.000D+00 Y=-1.382309218908D+03 DE= 0.00D+00 F= -8.32D-10
     ILin= 2 X=1.000D+00 Y=-1.382309218908D+03 DE=-3.87D-10
 Iteration   9 EE= -1382.30921890799     Delta-E=       -0.000000000387 Grad=1.349D-05 Max rot=    0.0003 deg.
 QCNR:  CnvC1=1.35D-10 CnvC2=1.35D-09
 LinEq1:  Iter=  0 NonCon=     1 RMS=2.36D-07 Max=2.06D-06 NDo=     1
 LinEq1:  Iter=  1 NonCon=     1 RMS=1.04D-07 Max=1.15D-06 NDo=     1
 LinEq1:  Iter=  2 NonCon=     1 RMS=3.94D-08 Max=3.56D-07 NDo=     1
 LinEq1:  Iter=  3 NonCon=     1 RMS=1.01D-08 Max=1.12D-07 NDo=     1
 LinEq1:  Iter=  4 NonCon=     1 RMS=3.60D-09 Max=4.46D-08 NDo=     1
 LinEq1:  Iter=  5 NonCon=     1 RMS=1.74D-09 Max=1.58D-08 NDo=     1
 LinEq1:  Iter=  6 NonCon=     1 RMS=8.00D-10 Max=7.94D-09 NDo=     1
 LinEq1:  Iter=  7 NonCon=     1 RMS=2.46D-10 Max=2.98D-09 NDo=     1
 LinEq1:  Iter=  8 NonCon=     0 RMS=7.17D-11 Max=9.35D-10 NDo=     1
 Linear equations converged to 1.349D-10 1.349D-09 after     8 iterations.
 Angle between quadratic step and gradient=  85.98 degrees.
     ILin= 1 X=0.000D+00 Y=-1.382309218908D+03 DE= 0.00D+00 F= -8.17D-10
     ILin= 2 X=1.000D+00 Y=-1.382309218908D+03 DE=-1.14D-10
 Iteration  10 EE= -1382.30921890810     Delta-E=       -0.000000000114 Grad=3.782D-05 Max rot=    0.0007 deg.
 QCNR:  CnvC1=3.78D-10 CnvC2=3.78D-09
 LinEq1:  Iter=  0 NonCon=     1 RMS=4.97D-07 Max=6.51D-06 NDo=     1
 LinEq1:  Iter=  1 NonCon=     1 RMS=2.85D-07 Max=3.98D-06 NDo=     1
 LinEq1:  Iter=  2 NonCon=     1 RMS=7.15D-08 Max=5.75D-07 NDo=     1
 LinEq1:  Iter=  3 NonCon=     1 RMS=3.00D-08 Max=3.11D-07 NDo=     1
 LinEq1:  Iter=  4 NonCon=     1 RMS=1.21D-08 Max=1.28D-07 NDo=     1
 LinEq1:  Iter=  5 NonCon=     1 RMS=6.52D-09 Max=8.71D-08 NDo=     1
 LinEq1:  Iter=  6 NonCon=     1 RMS=1.92D-09 Max=1.28D-08 NDo=     1
 LinEq1:  Iter=  7 NonCon=     1 RMS=5.14D-10 Max=7.14D-09 NDo=     1
 LinEq1:  Iter=  8 NonCon=     0 RMS=1.64D-10 Max=1.51D-09 NDo=     1
 Linear equations converged to 3.782D-10 3.782D-09 after     8 iterations.
 Angle between quadratic step and gradient=  83.21 degrees.
     ILin= 1 X=0.000D+00 Y=-1.382309218908D+03 DE= 0.00D+00 F= -1.28D-09
     ILin= 2 X=1.000D+00 Y=-1.382309218909D+03 DE=-6.16D-10
 Iteration  11 EE= -1382.30921890872     Delta-E=       -0.000000000616 Grad=8.905D-06 Max rot=    0.0002 deg.
 QCNR:  CnvC1=8.91D-11 CnvC2=8.91D-10
 LinEq1:  Iter=  0 NonCon=     1 RMS=1.92D-07 Max=1.75D-06 NDo=     1
 LinEq1:  Iter=  1 NonCon=     1 RMS=7.88D-08 Max=7.64D-07 NDo=     1
 LinEq1:  Iter=  2 NonCon=     1 RMS=3.21D-08 Max=2.67D-07 NDo=     1
 LinEq1:  Iter=  3 NonCon=     1 RMS=6.90D-09 Max=7.72D-08 NDo=     1
 LinEq1:  Iter=  4 NonCon=     1 RMS=3.04D-09 Max=3.80D-08 NDo=     1
 LinEq1:  Iter=  5 NonCon=     1 RMS=1.55D-09 Max=1.27D-08 NDo=     1
 LinEq1:  Iter=  6 NonCon=     1 RMS=6.22D-10 Max=7.19D-09 NDo=     1
 LinEq1:  Iter=  7 NonCon=     1 RMS=1.14D-10 Max=1.81D-09 NDo=     1
 LinEq1:  Iter=  8 NonCon=     0 RMS=4.78D-11 Max=4.84D-10 NDo=     1
 Linear equations converged to 8.905D-11 8.905D-10 after     8 iterations.
 Angle between quadratic step and gradient=  84.80 degrees.
     ILin= 1 X=0.000D+00 Y=-1.382309218909D+03 DE= 0.00D+00 F= -1.38D-09
     ILin= 2 X=1.000D+00 Y=-1.382309218908D+03 DE= 2.41D-10 F=  1.87D-09
 QCLLim returned failure.
     ILin= 3 X=2.000D+00 Y=-1.382309218905D+03 DE= 3.73D-09 F=  5.12D-09
 QCLLim is confused:  Bigger=T Turned=T
 NLin=  3 IMin12=  1  2 I12=  0  2 IX=  1 XLMin= 0.000D+00 XLMax= 0.000D+00
 X = 0.000D+00 1.000D+00 2.000D+00
 DE= 0.000D+00 2.410D-10 3.733D-09
     An  expanding polynomial of degree  3 produced  0.4259
 Iteration  12 EE= -1382.30921890901     Delta-E=       -0.000000000294 Grad=3.094D-05 Max rot=    0.0004 deg.
 QCNR:  CnvC1=3.09D-10 CnvC2=3.09D-09
 LinEq1:  Iter=  0 NonCon=     1 RMS=3.82D-07 Max=4.09D-06 NDo=     1
 LinEq1:  Iter=  1 NonCon=     1 RMS=2.08D-07 Max=3.31D-06 NDo=     1
 LinEq1:  Iter=  2 NonCon=     1 RMS=5.54D-08 Max=3.70D-07 NDo=     1
 LinEq1:  Iter=  3 NonCon=     1 RMS=1.74D-08 Max=1.54D-07 NDo=     1
 LinEq1:  Iter=  4 NonCon=     1 RMS=8.03D-09 Max=9.59D-08 NDo=     1
 LinEq1:  Iter=  5 NonCon=     1 RMS=4.47D-09 Max=3.77D-08 NDo=     1
 LinEq1:  Iter=  6 NonCon=     1 RMS=1.44D-09 Max=1.59D-08 NDo=     1
 LinEq1:  Iter=  7 NonCon=     0 RMS=2.67D-10 Max=2.75D-09 NDo=     1
 Linear equations converged to 3.094D-10 3.094D-09 after     7 iterations.
 Angle between quadratic step and gradient=  86.08 degrees.
     ILin= 1 X=0.000D+00 Y=-1.382309218909D+03 DE= 0.00D+00 F= -7.91D-10
     ILin= 2 X=1.000D+00 Y=-1.382309218909D+03 DE=-2.91D-10
 Iteration  13 EE= -1382.30921890930     Delta-E=       -0.000000000291 Grad=2.397D-05 Max rot=    0.0006 deg.
 QCNR:  CnvC1=2.40D-10 CnvC2=2.40D-09
 LinEq1:  Iter=  0 NonCon=     1 RMS=2.75D-07 Max=2.83D-06 NDo=     1
 LinEq1:  Iter=  1 NonCon=     1 RMS=1.45D-07 Max=1.70D-06 NDo=     1
 LinEq1:  Iter=  2 NonCon=     1 RMS=3.66D-08 Max=2.56D-07 NDo=     1
 LinEq1:  Iter=  3 NonCon=     1 RMS=1.23D-08 Max=1.42D-07 NDo=     1
 LinEq1:  Iter=  4 NonCon=     1 RMS=7.32D-09 Max=8.24D-08 NDo=     1
 LinEq1:  Iter=  5 NonCon=     1 RMS=2.93D-09 Max=2.31D-08 NDo=     1
 LinEq1:  Iter=  6 NonCon=     1 RMS=7.94D-10 Max=1.03D-08 NDo=     1
 LinEq1:  Iter=  7 NonCon=     1 RMS=2.93D-10 Max=3.08D-09 NDo=     1
 LinEq1:  Iter=  8 NonCon=     0 RMS=5.30D-11 Max=5.41D-10 NDo=     1
 Linear equations converged to 2.397D-10 2.397D-09 after     8 iterations.
 Angle between quadratic step and gradient=  86.84 degrees.
     ILin= 1 X=0.000D+00 Y=-1.382309218909D+03 DE= 0.00D+00 F= -1.12D-09
     ILin= 2 X=1.000D+00 Y=-1.382309218910D+03 DE=-3.49D-10
 Iteration  14 EE= -1382.30921890965     Delta-E=       -0.000000000349 Grad=3.425D-05 Max rot=    0.0008 deg.
 QCNR:  CnvC1=3.42D-10 CnvC2=3.42D-09
 LinEq1:  Iter=  0 NonCon=     1 RMS=6.21D-07 Max=6.33D-06 NDo=     1
 LinEq1:  Iter=  1 NonCon=     1 RMS=1.99D-07 Max=2.28D-06 NDo=     1
 LinEq1:  Iter=  2 NonCon=     1 RMS=7.55D-08 Max=8.84D-07 NDo=     1
 LinEq1:  Iter=  3 NonCon=     1 RMS=2.66D-08 Max=2.83D-07 NDo=     1
 LinEq1:  Iter=  4 NonCon=     1 RMS=8.16D-09 Max=7.25D-08 NDo=     1
 LinEq1:  Iter=  5 NonCon=     1 RMS=4.11D-09 Max=3.49D-08 NDo=     1
 LinEq1:  Iter=  6 NonCon=     1 RMS=2.04D-09 Max=1.64D-08 NDo=     1
 LinEq1:  Iter=  7 NonCon=     1 RMS=7.50D-10 Max=8.93D-09 NDo=     1
 LinEq1:  Iter=  8 NonCon=     0 RMS=1.69D-10 Max=1.31D-09 NDo=     1
 Linear equations converged to 3.425D-10 3.425D-09 after     8 iterations.
 Angle between quadratic step and gradient=  84.24 degrees.
     ILin= 1 X=0.000D+00 Y=-1.382309218910D+03 DE= 0.00D+00 F= -1.08D-09
     ILin= 2 X=1.000D+00 Y=-1.382309218910D+03 DE=-4.50D-10
 Iteration  15 EE= -1382.30921891010     Delta-E=       -0.000000000450 Grad=2.609D-05 Max rot=    0.0005 deg.
 QCNR:  CnvC1=2.61D-10 CnvC2=2.61D-09
 LinEq1:  Iter=  0 NonCon=     1 RMS=3.02D-07 Max=2.34D-06 NDo=     1
 LinEq1:  Iter=  1 NonCon=     1 RMS=1.19D-07 Max=1.74D-06 NDo=     1
 LinEq1:  Iter=  2 NonCon=     1 RMS=3.78D-08 Max=3.23D-07 NDo=     1
 LinEq1:  Iter=  3 NonCon=     1 RMS=1.44D-08 Max=1.51D-07 NDo=     1
 LinEq1:  Iter=  4 NonCon=     1 RMS=4.23D-09 Max=4.90D-08 NDo=     1
 LinEq1:  Iter=  5 NonCon=     1 RMS=1.38D-09 Max=1.34D-08 NDo=     1
 LinEq1:  Iter=  6 NonCon=     1 RMS=7.86D-10 Max=6.89D-09 NDo=     1
 LinEq1:  Iter=  7 NonCon=     1 RMS=3.87D-10 Max=2.80D-09 NDo=     1
 LinEq1:  Iter=  8 NonCon=     0 RMS=8.21D-11 Max=1.09D-09 NDo=     1
 Linear equations converged to 2.609D-10 2.609D-09 after     8 iterations.
 Angle between quadratic step and gradient=  87.66 degrees.
     ILin= 1 X=0.000D+00 Y=-1.382309218910D+03 DE= 0.00D+00 F= -1.05D-09
     ILin= 2 X=1.000D+00 Y=-1.382309218910D+03 DE=-3.01D-10
 Iteration  16 EE= -1382.30921891040     Delta-E=       -0.000000000301 Grad=3.558D-05 Max rot=    0.0008 deg.
 QCNR:  CnvC1=3.56D-10 CnvC2=3.56D-09
 LinEq1:  Iter=  0 NonCon=     1 RMS=5.43D-07 Max=7.14D-06 NDo=     1
 LinEq1:  Iter=  1 NonCon=     1 RMS=2.45D-07 Max=2.99D-06 NDo=     1
 LinEq1:  Iter=  2 NonCon=     1 RMS=7.61D-08 Max=6.22D-07 NDo=     1
 LinEq1:  Iter=  3 NonCon=     1 RMS=3.79D-08 Max=3.24D-07 NDo=     1
 LinEq1:  Iter=  4 NonCon=     1 RMS=1.32D-08 Max=1.48D-07 NDo=     1
 LinEq1:  Iter=  5 NonCon=     1 RMS=5.38D-09 Max=6.33D-08 NDo=     1
 LinEq1:  Iter=  6 NonCon=     1 RMS=2.16D-09 Max=1.46D-08 NDo=     1
 LinEq1:  Iter=  7 NonCon=     1 RMS=5.74D-10 Max=8.11D-09 NDo=     1
 LinEq1:  Iter=  8 NonCon=     0 RMS=1.82D-10 Max=1.49D-09 NDo=     1
 Linear equations converged to 3.558D-10 3.558D-09 after     8 iterations.
 Angle between quadratic step and gradient=  82.97 degrees.
     ILin= 1 X=0.000D+00 Y=-1.382309218910D+03 DE= 0.00D+00 F= -1.34D-09
     ILin= 2 X=1.000D+00 Y=-1.382309218911D+03 DE=-6.01D-10
 Iteration  17 EE= -1382.30921891100     Delta-E=       -0.000000000601 Grad=1.763D-05 Max rot=    0.0003 deg.
 QCNR:  CnvC1=1.76D-10 CnvC2=1.76D-09
 LinEq1:  Iter=  0 NonCon=     1 RMS=2.23D-07 Max=1.82D-06 NDo=     1
 LinEq1:  Iter=  1 NonCon=     1 RMS=9.04D-08 Max=1.09D-06 NDo=     1
 LinEq1:  Iter=  2 NonCon=     1 RMS=2.43D-08 Max=1.68D-07 NDo=     1
 LinEq1:  Iter=  3 NonCon=     1 RMS=1.11D-08 Max=8.92D-08 NDo=     1
 LinEq1:  Iter=  4 NonCon=     1 RMS=5.16D-09 Max=6.20D-08 NDo=     1
 LinEq1:  Iter=  5 NonCon=     1 RMS=2.53D-09 Max=2.38D-08 NDo=     1
 LinEq1:  Iter=  6 NonCon=     1 RMS=6.73D-10 Max=5.88D-09 NDo=     1
 LinEq1:  Iter=  7 NonCon=     1 RMS=1.99D-10 Max=2.30D-09 NDo=     1
 LinEq1:  Iter=  8 NonCon=     0 RMS=5.73D-11 Max=7.66D-10 NDo=     1
 Linear equations converged to 1.763D-10 1.763D-09 after     8 iterations.
 Angle between quadratic step and gradient=  87.01 degrees.
     ILin= 1 X=0.000D+00 Y=-1.382309218911D+03 DE= 0.00D+00 F= -1.39D-09
     ILin= 2 X=1.000D+00 Y=-1.382309218911D+03 DE=-2.16D-10
 Iteration  18 EE= -1382.30921891122     Delta-E=       -0.000000000216 Grad=5.089D-05 Max rot=    0.0012 deg.
 QCNR:  CnvC1=5.09D-10 CnvC2=5.09D-09
 LinEq1:  Iter=  0 NonCon=     1 RMS=6.47D-07 Max=8.66D-06 NDo=     1
 LinEq1:  Iter=  1 NonCon=     1 RMS=3.37D-07 Max=4.25D-06 NDo=     1
 LinEq1:  Iter=  2 NonCon=     1 RMS=6.39D-08 Max=6.06D-07 NDo=     1
 LinEq1:  Iter=  3 NonCon=     1 RMS=1.83D-08 Max=1.52D-07 NDo=     1
 LinEq1:  Iter=  4 NonCon=     1 RMS=7.86D-09 Max=1.06D-07 NDo=     1
 LinEq1:  Iter=  5 NonCon=     1 RMS=3.22D-09 Max=2.90D-08 NDo=     1
 LinEq1:  Iter=  6 NonCon=     1 RMS=1.58D-09 Max=1.16D-08 NDo=     1
 LinEq1:  Iter=  7 NonCon=     1 RMS=5.35D-10 Max=6.95D-09 NDo=     1
 LinEq1:  Iter=  8 NonCon=     0 RMS=2.10D-10 Max=1.75D-09 NDo=     1
 Linear equations converged to 5.089D-10 5.089D-09 after     8 iterations.
 Angle between quadratic step and gradient=  82.89 degrees.
     ILin= 1 X=0.000D+00 Y=-1.382309218911D+03 DE= 0.00D+00 F= -2.20D-09
     ILin= 2 X=1.000D+00 Y=-1.382309218912D+03 DE=-1.06D-09
 Iteration  19 EE= -1382.30921891227     Delta-E=       -0.000000001056 Grad=1.378D-05 Max rot=    0.0002 deg.
 QCNR:  CnvC1=1.38D-10 CnvC2=1.38D-09
 LinEq1:  Iter=  0 NonCon=     1 RMS=1.89D-07 Max=1.58D-06 NDo=     1
 LinEq1:  Iter=  1 NonCon=     1 RMS=7.64D-08 Max=7.80D-07 NDo=     1
 LinEq1:  Iter=  2 NonCon=     1 RMS=2.19D-08 Max=1.37D-07 NDo=     1
 LinEq1:  Iter=  3 NonCon=     1 RMS=9.79D-09 Max=9.65D-08 NDo=     1
 LinEq1:  Iter=  4 NonCon=     1 RMS=4.69D-09 Max=5.92D-08 NDo=     1
 LinEq1:  Iter=  5 NonCon=     1 RMS=2.28D-09 Max=2.10D-08 NDo=     1
 LinEq1:  Iter=  6 NonCon=     1 RMS=5.95D-10 Max=5.55D-09 NDo=     1
 LinEq1:  Iter=  7 NonCon=     1 RMS=1.06D-10 Max=1.57D-09 NDo=     1
 LinEq1:  Iter=  8 NonCon=     0 RMS=3.95D-11 Max=4.16D-10 NDo=     1
 Linear equations converged to 1.378D-10 1.378D-09 after     8 iterations.
 Angle between quadratic step and gradient=  86.75 degrees.
     ILin= 1 X=0.000D+00 Y=-1.382309218912D+03 DE= 0.00D+00 F= -2.14D-09
     ILin= 2 X=1.000D+00 Y=-1.382309218910D+03 DE= 2.07D-09 F=  6.25D-09
     Reject lnstep minimum 2.524D-01 FVal=-1.382309218913D+03 Lims=  0.00D+00  1.00D+00
     ILin= 3 X=3.000D-01 Y=-1.382309218913D+03 DE=-2.59D-10 F=  4.11D-10
     A contracting polynomial of degree  3 produced  0.2529
 Iteration  20 EE= -1382.30921891255     Delta-E=       -0.000000000271 Grad=7.493D-05 Max rot=    0.0019 deg.
 QCNR:  CnvC1=7.49D-10 CnvC2=7.49D-09
 LinEq1:  Iter=  0 NonCon=     1 RMS=3.24D-07 Max=3.60D-06 NDo=     1
 LinEq1:  Iter=  1 NonCon=     1 RMS=1.52D-07 Max=2.48D-06 NDo=     1
 LinEq1:  Iter=  2 NonCon=     1 RMS=3.44D-08 Max=2.41D-07 NDo=     1
 LinEq1:  Iter=  3 NonCon=     1 RMS=1.55D-08 Max=1.28D-07 NDo=     1
 LinEq1:  Iter=  4 NonCon=     1 RMS=8.64D-09 Max=9.69D-08 NDo=     1
 LinEq1:  Iter=  5 NonCon=     1 RMS=3.34D-09 Max=2.31D-08 NDo=     1
 LinEq1:  Iter=  6 NonCon=     1 RMS=9.20D-10 Max=9.84D-09 NDo=     1
 LinEq1:  Iter=  7 NonCon=     0 RMS=3.44D-10 Max=2.51D-09 NDo=     1
 Linear equations converged to 7.493D-10 7.493D-09 after     7 iterations.
 Angle between quadratic step and gradient=  88.72 degrees.
     ILin= 1 X=0.000D+00 Y=-1.382309218913D+03 DE= 0.00D+00 F= -8.58D-10
     ILin= 2 X=1.000D+00 Y=-1.382309218913D+03 DE=-3.04D-10
 Iteration  21 EE= -1382.30921891285     Delta-E=       -0.000000000304 Grad=5.474D-05 Max rot=    0.0009 deg.
 QCNR:  CnvC1=5.47D-10 CnvC2=5.47D-09
 LinEq1:  Iter=  0 NonCon=     1 RMS=4.17D-07 Max=3.11D-06 NDo=     1
 LinEq1:  Iter=  1 NonCon=     1 RMS=2.18D-07 Max=2.26D-06 NDo=     1
 LinEq1:  Iter=  2 NonCon=     1 RMS=6.75D-08 Max=4.30D-07 NDo=     1
 LinEq1:  Iter=  3 NonCon=     1 RMS=1.82D-08 Max=1.67D-07 NDo=     1
[...]
 LinEq1:  Iter=  1 NonCon=     1 RMS=6.74D-08 Max=7.21D-07 NDo=     1
 LinEq1:  Iter=  2 NonCon=     1 RMS=1.70D-08 Max=1.17D-07 NDo=     1
 LinEq1:  Iter=  3 NonCon=     1 RMS=7.21D-09 Max=6.09D-08 NDo=     1
 LinEq1:  Iter=  4 NonCon=     1 RMS=3.18D-09 Max=3.39D-08 NDo=     1
 LinEq1:  Iter=  5 NonCon=     1 RMS=1.62D-09 Max=1.61D-08 NDo=     1
 LinEq1:  Iter=  6 NonCon=     1 RMS=6.84D-10 Max=5.63D-09 NDo=     1
 LinEq1:  Iter=  7 NonCon=     1 RMS=1.58D-10 Max=1.11D-09 NDo=     1
 LinEq1:  Iter=  8 NonCon=     0 RMS=5.04D-11 Max=6.62D-10 NDo=     1
 Linear equations converged to 1.070D-10 1.070D-09 after     8 iterations.
 Angle between quadratic step and gradient=  86.48 degrees.
     ILin= 1 X=0.000D+00 Y=-1.382309220046D+03 DE= 0.00D+00 F= -3.41D-10
     ILin= 2 X=1.000D+00 Y=-1.382309220046D+03 DE=-1.41D-10
 Iteration 495 EE= -1382.30922004632     Delta-E=       -0.000000000141 Grad=1.438D-05 Max rot=    0.0002 deg.
 QCNR:  CnvC1=1.44D-10 CnvC2=1.44D-09
 LinEq1:  Iter=  0 NonCon=     1 RMS=3.13D-07 Max=4.08D-06 NDo=     1
 LinEq1:  Iter=  1 NonCon=     1 RMS=1.03D-07 Max=1.26D-06 NDo=     1
 LinEq1:  Iter=  2 NonCon=     1 RMS=2.69D-08 Max=2.66D-07 NDo=     1
 LinEq1:  Iter=  3 NonCon=     1 RMS=9.22D-09 Max=7.30D-08 NDo=     1
 LinEq1:  Iter=  4 NonCon=     1 RMS=3.59D-09 Max=4.24D-08 NDo=     1
 LinEq1:  Iter=  5 NonCon=     1 RMS=1.60D-09 Max=1.57D-08 NDo=     1
 LinEq1:  Iter=  6 NonCon=     1 RMS=6.72D-10 Max=5.37D-09 NDo=     1
 LinEq1:  Iter=  7 NonCon=     1 RMS=2.47D-10 Max=2.65D-09 NDo=     1
 LinEq1:  Iter=  8 NonCon=     0 RMS=9.59D-11 Max=8.84D-10 NDo=     1
 Linear equations converged to 1.438D-10 1.438D-09 after     8 iterations.
 Angle between quadratic step and gradient=  82.95 degrees.
     ILin= 1 X=0.000D+00 Y=-1.382309220046D+03 DE= 0.00D+00 F= -3.57D-10
     ILin= 2 X=1.000D+00 Y=-1.382309220046D+03 DE=-1.61D-10
 Iteration 496 EE= -1382.30922004648     Delta-E=       -0.000000000161 Grad=9.243D-06 Max rot=    0.0001 deg.
 QCNR:  CnvC1=9.24D-11 CnvC2=9.24D-10
 LinEq1:  Iter=  0 NonCon=     1 RMS=1.59D-07 Max=1.48D-06 NDo=     1
 LinEq1:  Iter=  1 NonCon=     1 RMS=6.72D-08 Max=6.78D-07 NDo=     1
 LinEq1:  Iter=  2 NonCon=     1 RMS=3.12D-08 Max=2.71D-07 NDo=     1
 LinEq1:  Iter=  3 NonCon=     1 RMS=1.25D-08 Max=1.13D-07 NDo=     1
 LinEq1:  Iter=  4 NonCon=     1 RMS=4.43D-09 Max=5.11D-08 NDo=     1
 LinEq1:  Iter=  5 NonCon=     1 RMS=1.86D-09 Max=2.01D-08 NDo=     1
 LinEq1:  Iter=  6 NonCon=     1 RMS=6.78D-10 Max=6.36D-09 NDo=     1
 LinEq1:  Iter=  7 NonCon=     1 RMS=1.50D-10 Max=1.24D-09 NDo=     1
 LinEq1:  Iter=  8 NonCon=     0 RMS=5.10D-11 Max=7.46D-10 NDo=     1
 Linear equations converged to 9.243D-11 9.243D-10 after     8 iterations.
 Angle between quadratic step and gradient=  85.97 degrees.
     ILin= 1 X=0.000D+00 Y=-1.382309220046D+03 DE= 0.00D+00 F= -3.24D-10
     ILin= 2 X=1.000D+00 Y=-1.382309220047D+03 DE=-1.37D-10
 Iteration 497 EE= -1382.30922004661     Delta-E=       -0.000000000137 Grad=1.173D-05 Max rot=    0.0002 deg.
 QCNR:  CnvC1=1.17D-10 CnvC2=1.17D-09
 LinEq1:  Iter=  0 NonCon=     1 RMS=2.80D-07 Max=4.05D-06 NDo=     1
 LinEq1:  Iter=  1 NonCon=     1 RMS=9.18D-08 Max=1.05D-06 NDo=     1
 LinEq1:  Iter=  2 NonCon=     1 RMS=2.38D-08 Max=2.35D-07 NDo=     1
 LinEq1:  Iter=  3 NonCon=     1 RMS=8.80D-09 Max=7.69D-08 NDo=     1
 LinEq1:  Iter=  4 NonCon=     1 RMS=4.13D-09 Max=4.73D-08 NDo=     1
 LinEq1:  Iter=  5 NonCon=     1 RMS=2.04D-09 Max=1.87D-08 NDo=     1
 LinEq1:  Iter=  6 NonCon=     1 RMS=9.31D-10 Max=6.00D-09 NDo=     1
 LinEq1:  Iter=  7 NonCon=     1 RMS=2.32D-10 Max=2.63D-09 NDo=     1
 LinEq1:  Iter=  8 NonCon=     0 RMS=9.01D-11 Max=7.78D-10 NDo=     1
 Linear equations converged to 1.173D-10 1.173D-09 after     8 iterations.
 Angle between quadratic step and gradient=  81.91 degrees.
     ILin= 1 X=0.000D+00 Y=-1.382309220047D+03 DE= 0.00D+00 F= -3.23D-10
     ILin= 2 X=1.000D+00 Y=-1.382309220047D+03 DE=-1.44D-10
 Iteration 498 EE= -1382.30922004676     Delta-E=       -0.000000000144 Grad=9.310D-06 Max rot=    0.0002 deg.
 QCNR:  CnvC1=9.31D-11 CnvC2=9.31D-10
 LinEq1:  Iter=  0 NonCon=     1 RMS=1.52D-07 Max=1.33D-06 NDo=     1
 LinEq1:  Iter=  1 NonCon=     1 RMS=6.21D-08 Max=6.16D-07 NDo=     1
 LinEq1:  Iter=  2 NonCon=     1 RMS=1.55D-08 Max=1.12D-07 NDo=     1
 LinEq1:  Iter=  3 NonCon=     1 RMS=5.71D-09 Max=4.83D-08 NDo=     1
 LinEq1:  Iter=  4 NonCon=     1 RMS=2.15D-09 Max=2.80D-08 NDo=     1
 LinEq1:  Iter=  5 NonCon=     1 RMS=7.50D-10 Max=6.55D-09 NDo=     1
 LinEq1:  Iter=  6 NonCon=     1 RMS=3.87D-10 Max=3.03D-09 NDo=     1
 LinEq1:  Iter=  7 NonCon=     1 RMS=1.39D-10 Max=1.37D-09 NDo=     1
 LinEq1:  Iter=  8 NonCon=     0 RMS=5.06D-11 Max=8.12D-10 NDo=     1
 Linear equations converged to 9.310D-11 9.310D-10 after     8 iterations.
 Angle between quadratic step and gradient=  86.06 degrees.
     ILin= 1 X=0.000D+00 Y=-1.382309220047D+03 DE= 0.00D+00 F= -3.10D-10
     ILin= 2 X=1.000D+00 Y=-1.382309220047D+03 DE=-1.35D-10
 Iteration 499 EE= -1382.30922004689     Delta-E=       -0.000000000135 Grad=1.156D-05 Max rot=    0.0002 deg.
 QCNR:  CnvC1=1.16D-10 CnvC2=1.16D-09
 LinEq1:  Iter=  0 NonCon=     1 RMS=2.56D-07 Max=4.10D-06 NDo=     1
 LinEq1:  Iter=  1 NonCon=     1 RMS=9.55D-08 Max=1.01D-06 NDo=     1
 LinEq1:  Iter=  2 NonCon=     1 RMS=3.10D-08 Max=2.33D-07 NDo=     1
 LinEq1:  Iter=  3 NonCon=     1 RMS=1.59D-08 Max=1.36D-07 NDo=     1
 LinEq1:  Iter=  4 NonCon=     1 RMS=6.11D-09 Max=7.91D-08 NDo=     1
 LinEq1:  Iter=  5 NonCon=     1 RMS=2.28D-09 Max=1.93D-08 NDo=     1
 LinEq1:  Iter=  6 NonCon=     1 RMS=8.83D-10 Max=6.21D-09 NDo=     1
 LinEq1:  Iter=  7 NonCon=     1 RMS=2.03D-10 Max=2.20D-09 NDo=     1
 LinEq1:  Iter=  8 NonCon=     0 RMS=8.17D-11 Max=6.43D-10 NDo=     1
 Linear equations converged to 1.156D-10 1.156D-09 after     8 iterations.
 Angle between quadratic step and gradient=  82.05 degrees.
     ILin= 1 X=0.000D+00 Y=-1.382309220047D+03 DE= 0.00D+00 F= -3.08D-10
     ILin= 2 X=1.000D+00 Y=-1.382309220047D+03 DE=-1.31D-10
 Iteration 500 EE= -1382.30922004702     Delta-E=       -0.000000000131 Grad=9.995D-06 Max rot=    0.0002 deg.
 QCNR:  CnvC1=9.99D-11 CnvC2=9.99D-10
 LinEq1:  Iter=  0 NonCon=     1 RMS=1.55D-07 Max=1.23D-06 NDo=     1
 LinEq1:  Iter=  1 NonCon=     1 RMS=6.32D-08 Max=6.37D-07 NDo=     1
 LinEq1:  Iter=  2 NonCon=     1 RMS=1.72D-08 Max=1.13D-07 NDo=     1
 LinEq1:  Iter=  3 NonCon=     1 RMS=8.45D-09 Max=7.04D-08 NDo=     1
 LinEq1:  Iter=  4 NonCon=     1 RMS=3.62D-09 Max=4.22D-08 NDo=     1
 LinEq1:  Iter=  5 NonCon=     1 RMS=1.74D-09 Max=1.86D-08 NDo=     1
 LinEq1:  Iter=  6 NonCon=     1 RMS=5.91D-10 Max=5.84D-09 NDo=     1
 LinEq1:  Iter=  7 NonCon=     1 RMS=1.42D-10 Max=1.51D-09 NDo=     1
 LinEq1:  Iter=  8 NonCon=     0 RMS=5.07D-11 Max=8.13D-10 NDo=     1
 Linear equations converged to 9.995D-11 9.995D-10 after     8 iterations.
 Angle between quadratic step and gradient=  86.29 degrees.
     ILin= 1 X=0.000D+00 Y=-1.382309220047D+03 DE= 0.00D+00 F= -3.13D-10
     ILin= 2 X=1.000D+00 Y=-1.382309220047D+03 DE=-1.31D-10
 Iteration 501 EE= -1382.30922004716     Delta-E=       -0.000000000131 Grad=1.312D-05 Max rot=    0.0003 deg.
 QCNR:  CnvC1=1.31D-10 CnvC2=1.31D-09
 LinEq1:  Iter=  0 NonCon=     1 RMS=2.51D-07 Max=4.01D-06 NDo=     1
 LinEq1:  Iter=  1 NonCon=     1 RMS=9.79D-08 Max=1.07D-06 NDo=     1
 LinEq1:  Iter=  2 NonCon=     1 RMS=2.14D-08 Max=1.96D-07 NDo=     1
 LinEq1:  Iter=  3 NonCon=     1 RMS=6.86D-09 Max=7.53D-08 NDo=     1
 LinEq1:  Iter=  4 NonCon=     1 RMS=3.08D-09 Max=3.58D-08 NDo=     1
 LinEq1:  Iter=  5 NonCon=     1 RMS=1.04D-09 Max=1.09D-08 NDo=     1
 LinEq1:  Iter=  6 NonCon=     1 RMS=3.99D-10 Max=2.77D-09 NDo=     1
 LinEq1:  Iter=  7 NonCon=     1 RMS=1.87D-10 Max=1.97D-09 NDo=     1
 LinEq1:  Iter=  8 NonCon=     0 RMS=7.83D-11 Max=5.88D-10 NDo=     1
 Linear equations converged to 1.312D-10 1.312D-09 after     8 iterations.
 Angle between quadratic step and gradient=  82.78 degrees.
     ILin= 1 X=0.000D+00 Y=-1.382309220047D+03 DE= 0.00D+00 F= -3.15D-10
     ILin= 2 X=1.000D+00 Y=-1.382309220047D+03 DE=-1.34D-10
 Iteration 502 EE= -1382.30922004729     Delta-E=       -0.000000000134 Grad=1.002D-05 Max rot=    0.0002 deg.
 QCNR:  CnvC1=1.00D-10 CnvC2=1.00D-09
 LinEq1:  Iter=  0 NonCon=     1 RMS=1.57D-07 Max=1.18D-06 NDo=     1
 LinEq1:  Iter=  1 NonCon=     1 RMS=6.66D-08 Max=6.35D-07 NDo=     1
 LinEq1:  Iter=  2 NonCon=     1 RMS=2.49D-08 Max=1.73D-07 NDo=     1
 LinEq1:  Iter=  3 NonCon=     1 RMS=1.14D-08 Max=1.13D-07 NDo=     1
 LinEq1:  Iter=  4 NonCon=     1 RMS=4.03D-09 Max=4.68D-08 NDo=     1
 LinEq1:  Iter=  5 NonCon=     1 RMS=1.84D-09 Max=2.01D-08 NDo=     1
 LinEq1:  Iter=  6 NonCon=     1 RMS=5.64D-10 Max=5.31D-09 NDo=     1
 LinEq1:  Iter=  7 NonCon=     1 RMS=1.24D-10 Max=1.41D-09 NDo=     1
 LinEq1:  Iter=  8 NonCon=     0 RMS=4.87D-11 Max=7.22D-10 NDo=     1
 Linear equations converged to 1.002D-10 1.002D-09 after     8 iterations.
 Angle between quadratic step and gradient=  86.34 degrees.
     ILin= 1 X=0.000D+00 Y=-1.382309220047D+03 DE= 0.00D+00 F= -3.19D-10
     ILin= 2 X=1.000D+00 Y=-1.382309220047D+03 DE=-1.26D-10
 Iteration 503 EE= -1382.30922004742     Delta-E=       -0.000000000126 Grad=1.505D-05 Max rot=    0.0003 deg.
 QCNR:  CnvC1=1.51D-10 CnvC2=1.51D-09
 LinEq1:  Iter=  0 NonCon=     1 RMS=2.59D-07 Max=3.82D-06 NDo=     1
 LinEq1:  Iter=  1 NonCon=     1 RMS=1.07D-07 Max=1.24D-06 NDo=     1
 LinEq1:  Iter=  2 NonCon=     1 RMS=2.27D-08 Max=2.04D-07 NDo=     1
 LinEq1:  Iter=  3 NonCon=     1 RMS=7.73D-09 Max=7.86D-08 NDo=     1
 LinEq1:  Iter=  4 NonCon=     1 RMS=4.12D-09 Max=4.72D-08 NDo=     1
 LinEq1:  Iter=  5 NonCon=     1 RMS=1.76D-09 Max=1.48D-08 NDo=     1
 LinEq1:  Iter=  6 NonCon=     1 RMS=8.56D-10 Max=6.43D-09 NDo=     1
 LinEq1:  Iter=  7 NonCon=     1 RMS=2.01D-10 Max=2.05D-09 NDo=     1
 LinEq1:  Iter=  8 NonCon=     0 RMS=7.79D-11 Max=5.36D-10 NDo=     1
 Linear equations converged to 1.505D-10 1.505D-09 after     8 iterations.
 Angle between quadratic step and gradient=  83.34 degrees.
     ILin= 1 X=0.000D+00 Y=-1.382309220047D+03 DE= 0.00D+00 F= -3.32D-10
     ILin= 2 X=1.000D+00 Y=-1.382309220048D+03 DE=-1.44D-10
 Iteration 504 EE= -1382.30922004756     Delta-E=       -0.000000000144 Grad=9.885D-06 Max rot=    0.0002 deg.
 QCNR:  CnvC1=9.89D-11 CnvC2=9.89D-10
 LinEq1:  Iter=  0 NonCon=     1 RMS=1.57D-07 Max=1.09D-06 NDo=     1
 LinEq1:  Iter=  1 NonCon=     1 RMS=6.31D-08 Max=6.10D-07 NDo=     1
 LinEq1:  Iter=  2 NonCon=     1 RMS=1.44D-08 Max=1.17D-07 NDo=     1
 LinEq1:  Iter=  3 NonCon=     1 RMS=6.62D-09 Max=5.27D-08 NDo=     1
 LinEq1:  Iter=  4 NonCon=     1 RMS=2.73D-09 Max=3.20D-08 NDo=     1
 LinEq1:  Iter=  5 NonCon=     1 RMS=1.47D-09 Max=1.38D-08 NDo=     1
 LinEq1:  Iter=  6 NonCon=     1 RMS=5.25D-10 Max=4.81D-09 NDo=     1
 LinEq1:  Iter=  7 NonCon=     1 RMS=1.17D-10 Max=1.36D-09 NDo=     1
 LinEq1:  Iter=  8 NonCon=     0 RMS=4.66D-11 Max=6.79D-10 NDo=     1
 Linear equations converged to 9.885D-11 9.885D-10 after     8 iterations.
 Angle between quadratic step and gradient=  86.39 degrees.
     ILin= 1 X=0.000D+00 Y=-1.382309220048D+03 DE= 0.00D+00 F= -3.26D-10
     ILin= 2 X=1.000D+00 Y=-1.382309220048D+03 DE=-1.25D-10
 Iteration 505 EE= -1382.30922004768     Delta-E=       -0.000000000125 Grad=1.612D-05 Max rot=    0.0003 deg.
 QCNR:  CnvC1=1.61D-10 CnvC2=1.61D-09
 LinEq1:  Iter=  0 NonCon=     1 RMS=2.61D-07 Max=3.79D-06 NDo=     1
 LinEq1:  Iter=  1 NonCon=     1 RMS=1.13D-07 Max=1.29D-06 NDo=     1
 LinEq1:  Iter=  2 NonCon=     1 RMS=2.27D-08 Max=2.02D-07 NDo=     1
 LinEq1:  Iter=  3 NonCon=     1 RMS=6.99D-09 Max=7.04D-08 NDo=     1
 LinEq1:  Iter=  4 NonCon=     1 RMS=3.67D-09 Max=4.05D-08 NDo=     1
 LinEq1:  Iter=  5 NonCon=     1 RMS=1.58D-09 Max=1.35D-08 NDo=     1
 LinEq1:  Iter=  6 NonCon=     1 RMS=7.96D-10 Max=6.08D-09 NDo=     1
 LinEq1:  Iter=  7 NonCon=     1 RMS=1.98D-10 Max=2.02D-09 NDo=     1
 LinEq1:  Iter=  8 NonCon=     0 RMS=7.51D-11 Max=7.15D-10 NDo=     1
 Linear equations converged to 1.612D-10 1.612D-09 after     8 iterations.
 Angle between quadratic step and gradient=  83.53 degrees.
     ILin= 1 X=0.000D+00 Y=-1.382309220048D+03 DE= 0.00D+00 F= -3.49D-10
     ILin= 2 X=1.000D+00 Y=-1.382309220048D+03 DE=-1.55D-10
 Iteration 506 EE= -1382.30922004784     Delta-E=       -0.000000000155 Grad=9.206D-06 Max rot=    0.0002 deg.
 QCNR:  CnvC1=9.21D-11 CnvC2=9.21D-10
 LinEq1:  Iter=  0 NonCon=     1 RMS=1.58D-07 Max=1.51D-06 NDo=     1
 LinEq1:  Iter=  1 NonCon=     1 RMS=6.41D-08 Max=5.67D-07 NDo=     1
 LinEq1:  Iter=  2 NonCon=     1 RMS=1.98D-08 Max=1.57D-07 NDo=     1
 LinEq1:  Iter=  3 NonCon=     1 RMS=1.04D-08 Max=9.92D-08 NDo=     1
 LinEq1:  Iter=  4 NonCon=     1 RMS=3.85D-09 Max=4.30D-08 NDo=     1
 LinEq1:  Iter=  5 NonCon=     1 RMS=1.81D-09 Max=1.86D-08 NDo=     1
 LinEq1:  Iter=  6 NonCon=     1 RMS=5.14D-10 Max=4.71D-09 NDo=     1
 LinEq1:  Iter=  7 NonCon=     1 RMS=1.07D-10 Max=1.24D-09 NDo=     1
 LinEq1:  Iter=  8 NonCon=     0 RMS=4.43D-11 Max=6.04D-10 NDo=     1
 Linear equations converged to 9.206D-11 9.206D-10 after     8 iterations.
 Angle between quadratic step and gradient=  86.29 degrees.
     ILin= 1 X=0.000D+00 Y=-1.382309220048D+03 DE= 0.00D+00 F= -3.36D-10
     ILin= 2 X=1.000D+00 Y=-1.382309220048D+03 DE=-1.27D-10
 Iteration 507 EE= -1382.30922004797     Delta-E=       -0.000000000127 Grad=1.784D-05 Max rot=    0.0003 deg.
 QCNR:  CnvC1=1.78D-10 CnvC2=1.78D-09
 LinEq1:  Iter=  0 NonCon=     1 RMS=2.71D-07 Max=3.68D-06 NDo=     1
 LinEq1:  Iter=  1 NonCon=     1 RMS=1.19D-07 Max=1.36D-06 NDo=     1
 LinEq1:  Iter=  2 NonCon=     1 RMS=2.33D-08 Max=2.08D-07 NDo=     1
 LinEq1:  Iter=  3 NonCon=     1 RMS=6.39D-09 Max=6.54D-08 NDo=     1
 LinEq1:  Iter=  4 NonCon=     1 RMS=2.94D-09 Max=3.23D-08 NDo=     1
 LinEq1:  Iter=  5 NonCon=     1 RMS=9.89D-10 Max=1.06D-08 NDo=     1
 LinEq1:  Iter=  6 NonCon=     1 RMS=3.08D-10 Max=2.42D-09 NDo=     1
 LinEq1:  Iter=  7 NonCon=     0 RMS=1.66D-10 Max=1.38D-09 NDo=     1
 Linear equations converged to 1.784D-10 1.784D-09 after     7 iterations.
 Angle between quadratic step and gradient=  83.23 degrees.
     ILin= 1 X=0.000D+00 Y=-1.382309220048D+03 DE= 0.00D+00 F= -3.62D-10
     ILin= 2 X=1.000D+00 Y=-1.382309220048D+03 DE=-1.75D-10
 Iteration 508 EE= -1382.30922004814     Delta-E=       -0.000000000175 Grad=5.018D-06 Max rot=    0.0001 deg.
 QCNR:  CnvC1=5.02D-11 CnvC2=5.02D-10
 LinEq1:  Iter=  0 NonCon=     1 RMS=1.11D-07 Max=9.21D-07 NDo=     1
 LinEq1:  Iter=  1 NonCon=     1 RMS=7.67D-08 Max=6.35D-07 NDo=     1
 LinEq1:  Iter=  2 NonCon=     1 RMS=2.67D-08 Max=3.49D-07 NDo=     1
 LinEq1:  Iter=  3 NonCon=     1 RMS=7.48D-09 Max=1.01D-07 NDo=     1
 LinEq1:  Iter=  4 NonCon=     1 RMS=3.25D-09 Max=3.09D-08 NDo=     1
 LinEq1:  Iter=  5 NonCon=     1 RMS=9.55D-10 Max=1.22D-08 NDo=     1
 LinEq1:  Iter=  6 NonCon=     1 RMS=2.18D-10 Max=1.77D-09 NDo=     1
 LinEq1:  Iter=  7 NonCon=     1 RMS=7.37D-11 Max=1.03D-09 NDo=     1
 LinEq1:  Iter=  8 NonCon=     0 RMS=1.66D-11 Max=1.55D-10 NDo=     1
 Linear equations converged to 5.018D-11 5.018D-10 after     8 iterations.
 Angle between quadratic step and gradient=  84.60 degrees.
     ILin= 1 X=0.000D+00 Y=-1.382309220048D+03 DE= 0.00D+00 F= -5.68D-10
     ILin= 2 X=1.000D+00 Y=-1.382309220048D+03 DE=-1.14D-10
 Iteration 509 EE= -1382.30922004825     Delta-E=       -0.000000000114 Grad=3.635D-05 Max rot=    0.0008 deg.
 QCNR:  CnvC1=3.64D-10 CnvC2=3.64D-09
 LinEq1:  Iter=  0 NonCon=     1 RMS=6.57D-07 Max=6.16D-06 NDo=     1
 LinEq1:  Iter=  1 NonCon=     1 RMS=1.50D-07 Max=2.40D-06 NDo=     1
 LinEq1:  Iter=  2 NonCon=     1 RMS=4.58D-08 Max=2.91D-07 NDo=     1
 LinEq1:  Iter=  3 NonCon=     1 RMS=1.29D-08 Max=1.32D-07 NDo=     1
 LinEq1:  Iter=  4 NonCon=     1 RMS=4.98D-09 Max=3.30D-08 NDo=     1
 LinEq1:  Iter=  5 NonCon=     1 RMS=2.09D-09 Max=2.51D-08 NDo=     1
 LinEq1:  Iter=  6 NonCon=     1 RMS=1.15D-09 Max=9.17D-09 NDo=     1
 LinEq1:  Iter=  7 NonCon=     1 RMS=3.47D-10 Max=3.90D-09 NDo=     1
 LinEq1:  Iter=  8 NonCon=     0 RMS=1.40D-10 Max=1.47D-09 NDo=     1
 Linear equations converged to 3.635D-10 3.635D-09 after     8 iterations.
 Angle between quadratic step and gradient=  82.10 degrees.
     ILin= 1 X=0.000D+00 Y=-1.382309220048D+03 DE= 0.00D+00 F= -9.03D-10
     ILin= 2 X=1.000D+00 Y=-1.382309220049D+03 DE=-4.34D-10
 Iteration 510 EE= -1382.30922004869     Delta-E=       -0.000000000434 Grad=9.662D-06 Max rot=    0.0002 deg.
 QCNR:  CnvC1=9.66D-11 CnvC2=9.66D-10
 LinEq1:  Iter=  0 NonCon=     1 RMS=1.15D-07 Max=1.20D-06 NDo=     1
 LinEq1:  Iter=  1 NonCon=     1 RMS=4.87D-08 Max=5.01D-07 NDo=     1
 LinEq1:  Iter=  2 NonCon=     1 RMS=1.59D-08 Max=1.32D-07 NDo=     1
 LinEq1:  Iter=  3 NonCon=     1 RMS=7.72D-09 Max=6.55D-08 NDo=     1
 LinEq1:  Iter=  4 NonCon=     1 RMS=3.03D-09 Max=2.47D-08 NDo=     1
 LinEq1:  Iter=  5 NonCon=     1 RMS=1.51D-09 Max=2.14D-08 NDo=     1
 LinEq1:  Iter=  6 NonCon=     1 RMS=4.51D-10 Max=3.72D-09 NDo=     1
 LinEq1:  Iter=  7 NonCon=     1 RMS=1.08D-10 Max=1.19D-09 NDo=     1
 LinEq1:  Iter=  8 NonCon=     0 RMS=3.06D-11 Max=3.34D-10 NDo=     1
 Linear equations converged to 9.662D-11 9.662D-10 after     8 iterations.
 Angle between quadratic step and gradient=  87.04 degrees.
     ILin= 1 X=0.000D+00 Y=-1.382309220049D+03 DE= 0.00D+00 F= -4.57D-10
     ILin= 2 X=1.000D+00 Y=-1.382309220049D+03 DE=-1.05D-10
 Iteration 511 EE= -1382.30922004879     Delta-E=       -0.000000000105 Grad=2.961D-05 Max rot=    0.0006 deg.
 QCNR:  CnvC1=2.96D-10 CnvC2=2.96D-09
 LinEq1:  Iter=  0 NonCon=     1 RMS=4.69D-07 Max=5.06D-06 NDo=     1
 LinEq1:  Iter=  1 NonCon=     1 RMS=1.61D-07 Max=2.41D-06 NDo=     1
 LinEq1:  Iter=  2 NonCon=     1 RMS=5.58D-08 Max=3.77D-07 NDo=     1
 LinEq1:  Iter=  3 NonCon=     1 RMS=1.59D-08 Max=1.27D-07 NDo=     1
 LinEq1:  Iter=  4 NonCon=     1 RMS=7.28D-09 Max=8.09D-08 NDo=     1
 LinEq1:  Iter=  5 NonCon=     1 RMS=3.43D-09 Max=3.18D-08 NDo=     1
 LinEq1:  Iter=  6 NonCon=     1 RMS=1.62D-09 Max=1.63D-08 NDo=     1
 LinEq1:  Iter=  7 NonCon=     1 RMS=3.49D-10 Max=3.50D-09 NDo=     1
 LinEq1:  Iter=  8 NonCon=     0 RMS=1.33D-10 Max=1.50D-09 NDo=     1
 Linear equations converged to 2.961D-10 2.961D-09 after     8 iterations.
 Angle between quadratic step and gradient=  82.83 degrees.
     ILin= 1 X=0.000D+00 Y=-1.382309220049D+03 DE= 0.00D+00 F= -6.61D-10
     ILin= 2 X=1.000D+00 Y=-1.382309220049D+03 DE=-3.25D-10
 Iteration 512 EE= -1382.30922004912     Delta-E=       -0.000000000325 Grad=5.576D-06 Max rot=    0.0001 deg.
 QCNR:  CnvC1=5.58D-11 CnvC2=5.58D-10
 LinEq1:  Iter=  0 NonCon=     1 RMS=9.55D-08 Max=1.07D-06 NDo=     1
 LinEq1:  Iter=  1 NonCon=     1 RMS=4.10D-08 Max=3.64D-07 NDo=     1
 LinEq1:  Iter=  2 NonCon=     1 RMS=1.08D-08 Max=1.16D-07 NDo=     1
 LinEq1:  Iter=  3 NonCon=     1 RMS=4.39D-09 Max=3.34D-08 NDo=     1
 LinEq1:  Iter=  4 NonCon=     1 RMS=1.57D-09 Max=2.03D-08 NDo=     1
 LinEq1:  Iter=  5 NonCon=     1 RMS=8.98D-10 Max=8.82D-09 NDo=     1
 LinEq1:  Iter=  6 NonCon=     1 RMS=3.43D-10 Max=2.11D-09 NDo=     1
 LinEq1:  Iter=  7 NonCon=     1 RMS=8.35D-11 Max=1.15D-09 NDo=     1
 LinEq1:  Iter=  8 NonCon=     0 RMS=2.91D-11 Max=3.51D-10 NDo=     1
 Linear equations converged to 5.576D-11 5.576D-10 after     8 iterations.
 Angle between quadratic step and gradient=  85.03 degrees.
     ILin= 1 X=0.000D+00 Y=-1.382309220049D+03 DE= 0.00D+00 F= -3.98D-10
     ILin= 2 X=1.000D+00 Y=-1.382309220049D+03 DE=-8.82D-11
 Convergence failure.
 Error termination via Lnk1e in /curc/sw/gaussian/16/g16/l508.exe at Fri Jan 14 15:11:18 2022.
 Job cpu time:       0 days  2 hours 49 minutes  6.4 seconds.
 Elapsed time:       0 days  0 hours  6 minutes 17.1 seconds.
 File lengths (MBytes):  RWF=     82 Int=      0 D2E=      0 Chk=      2 Scr=      2
